+ 0.5 0 4 cbr 1000 ------- 0 0.0 14.0 0 0
- 0.5 0 4 cbr 1000 ------- 0 0.0 14.0 0 0
+ 0.5 0 4 cbr 500 ------- 0 0.0 14.0 1 1
+ 0.5 1 4 cbr 1000 ------- 0 1.0 14.0 0 2
- 0.5 1 4 cbr 1000 ------- 0 1.0 14.0 0 2
+ 0.5 1 4 cbr 500 ------- 0 1.0 14.0 1 3
+ 0.5 2 4 cbr 1000 ------- 0 2.0 14.0 0 4
- 0.5 2 4 cbr 1000 ------- 0 2.0 14.0 0 4
+ 0.5 2 4 cbr 500 ------- 0 2.0 14.0 1 5
+ 0.5 3 4 cbr 1000 ------- 0 3.0 14.0 0 6
- 0.5 3 4 cbr 1000 ------- 0 3.0 14.0 0 6
+ 0.5 3 4 cbr 500 ------- 0 3.0 14.0 1 7
+ 0.5 5 9 cbr 1000 ------- 1 5.0 14.0 0 8
- 0.5 5 9 cbr 1000 ------- 1 5.0 14.0 0 8
+ 0.5 5 9 cbr 500 ------- 1 5.0 14.0 1 9
+ 0.5 6 9 cbr 1000 ------- 1 6.0 14.0 0 10
- 0.5 6 9 cbr 1000 ------- 1 6.0 14.0 0 10
+ 0.5 6 9 cbr 500 ------- 1 6.0 14.0 1 11
+ 0.5 7 9 cbr 1000 ------- 1 7.0 14.0 0 12
- 0.5 7 9 cbr 1000 ------- 1 7.0 14.0 0 12
+ 0.5 7 9 cbr 500 ------- 1 7.0 14.0 1 13
+ 0.5 8 9 cbr 1000 ------- 1 8.0 14.0 0 14
- 0.5 8 9 cbr 1000 ------- 1 8.0 14.0 0 14
+ 0.5 8 9 cbr 500 ------- 1 8.0 14.0 1 15
+ 0.5 16 15 cbr 1000 ------- 3 16.0 14.0 0 16
- 0.5 16 15 cbr 1000 ------- 3 16.0 14.0 0 16
+ 0.5 16 15 cbr 500 ------- 3 16.0 14.0 1 17
+ 0.5 17 15 cbr 1000 ------- 3 17.0 14.0 0 18
- 0.5 17 15 cbr 1000 ------- 3 17.0 14.0 0 18
+ 0.5 17 15 cbr 500 ------- 3 17.0 14.0 1 19
+ 0.5 18 15 cbr 1000 ------- 3 18.0 14.0 0 20
- 0.5 18 15 cbr 1000 ------- 3 18.0 14.0 0 20
+ 0.5 18 15 cbr 500 ------- 3 18.0 14.0 1 21
+ 0.5 20 19 cbr 1000 ------- 4 20.0 14.0 0 22
- 0.5 20 19 cbr 1000 ------- 4 20.0 14.0 0 22
+ 0.5 20 19 cbr 500 ------- 4 20.0 14.0 1 23
+ 0.5 21 19 cbr 1000 ------- 4 21.0 14.0 0 24
- 0.5 21 19 cbr 1000 ------- 4 21.0 14.0 0 24
+ 0.5 21 19 cbr 500 ------- 4 21.0 14.0 1 25
- 0.500667 0 4 cbr 500 ------- 0 0.0 14.0 1 1
- 0.500667 1 4 cbr 500 ------- 0 1.0 14.0 1 3
- 0.500667 2 4 cbr 500 ------- 0 2.0 14.0 1 5
- 0.500667 3 4 cbr 500 ------- 0 3.0 14.0 1 7
- 0.500667 5 9 cbr 500 ------- 1 5.0 14.0 1 9
- 0.500667 6 9 cbr 500 ------- 1 6.0 14.0 1 11
- 0.500667 7 9 cbr 500 ------- 1 7.0 14.0 1 13
- 0.500667 8 9 cbr 500 ------- 1 8.0 14.0 1 15
- 0.500667 16 15 cbr 500 ------- 3 16.0 14.0 1 17
- 0.500667 17 15 cbr 500 ------- 3 17.0 14.0 1 19
- 0.500667 18 15 cbr 500 ------- 3 18.0 14.0 1 21
- 0.500667 20 19 cbr 500 ------- 4 20.0 14.0 1 23
- 0.500667 21 19 cbr 500 ------- 4 21.0 14.0 1 25
r 0.600667 0 4 cbr 1000 ------- 0 0.0 14.0 0 0
+ 0.600667 4 13 cbr 1000 ------- 0 0.0 14.0 0 0
- 0.600667 4 13 cbr 1000 ------- 0 0.0 14.0 0 0
r 0.600667 1 4 cbr 1000 ------- 0 1.0 14.0 0 2
+ 0.600667 4 13 cbr 1000 ------- 0 1.0 14.0 0 2
r 0.600667 2 4 cbr 1000 ------- 0 2.0 14.0 0 4
+ 0.600667 4 13 cbr 1000 ------- 0 2.0 14.0 0 4
r 0.600667 3 4 cbr 1000 ------- 0 3.0 14.0 0 6
+ 0.600667 4 13 cbr 1000 ------- 0 3.0 14.0 0 6
r 0.600667 5 9 cbr 1000 ------- 1 5.0 14.0 0 8
+ 0.600667 9 13 cbr 1000 ------- 1 5.0 14.0 0 8
- 0.600667 9 13 cbr 1000 ------- 1 5.0 14.0 0 8
r 0.600667 6 9 cbr 1000 ------- 1 6.0 14.0 0 10
+ 0.600667 9 13 cbr 1000 ------- 1 6.0 14.0 0 10
r 0.600667 7 9 cbr 1000 ------- 1 7.0 14.0 0 12
+ 0.600667 9 13 cbr 1000 ------- 1 7.0 14.0 0 12
r 0.600667 8 9 cbr 1000 ------- 1 8.0 14.0 0 14
+ 0.600667 9 13 cbr 1000 ------- 1 8.0 14.0 0 14
r 0.600667 16 15 cbr 1000 ------- 3 16.0 14.0 0 16
+ 0.600667 15 13 cbr 1000 ------- 3 16.0 14.0 0 16
- 0.600667 15 13 cbr 1000 ------- 3 16.0 14.0 0 16
r 0.600667 17 15 cbr 1000 ------- 3 17.0 14.0 0 18
+ 0.600667 15 13 cbr 1000 ------- 3 17.0 14.0 0 18
r 0.600667 18 15 cbr 1000 ------- 3 18.0 14.0 0 20
+ 0.600667 15 13 cbr 1000 ------- 3 18.0 14.0 0 20
r 0.600667 20 19 cbr 1000 ------- 4 20.0 14.0 0 22
+ 0.600667 19 13 cbr 1000 ------- 4 20.0 14.0 0 22
- 0.600667 19 13 cbr 1000 ------- 4 20.0 14.0 0 22
r 0.600667 21 19 cbr 1000 ------- 4 21.0 14.0 0 24
+ 0.600667 19 13 cbr 1000 ------- 4 21.0 14.0 0 24
r 0.601 0 4 cbr 500 ------- 0 0.0 14.0 1 1
+ 0.601 4 13 cbr 500 ------- 0 0.0 14.0 1 1
r 0.601 1 4 cbr 500 ------- 0 1.0 14.0 1 3
+ 0.601 4 13 cbr 500 ------- 0 1.0 14.0 1 3
r 0.601 2 4 cbr 500 ------- 0 2.0 14.0 1 5
+ 0.601 4 13 cbr 500 ------- 0 2.0 14.0 1 5
r 0.601 3 4 cbr 500 ------- 0 3.0 14.0 1 7
+ 0.601 4 13 cbr 500 ------- 0 3.0 14.0 1 7
r 0.601 5 9 cbr 500 ------- 1 5.0 14.0 1 9
+ 0.601 9 13 cbr 500 ------- 1 5.0 14.0 1 9
r 0.601 6 9 cbr 500 ------- 1 6.0 14.0 1 11
+ 0.601 9 13 cbr 500 ------- 1 6.0 14.0 1 11
r 0.601 7 9 cbr 500 ------- 1 7.0 14.0 1 13
+ 0.601 9 13 cbr 500 ------- 1 7.0 14.0 1 13
r 0.601 8 9 cbr 500 ------- 1 8.0 14.0 1 15
+ 0.601 9 13 cbr 500 ------- 1 8.0 14.0 1 15
r 0.601 16 15 cbr 500 ------- 3 16.0 14.0 1 17
+ 0.601 15 13 cbr 500 ------- 3 16.0 14.0 1 17
r 0.601 17 15 cbr 500 ------- 3 17.0 14.0 1 19
+ 0.601 15 13 cbr 500 ------- 3 17.0 14.0 1 19
r 0.601 18 15 cbr 500 ------- 3 18.0 14.0 1 21
+ 0.601 15 13 cbr 500 ------- 3 18.0 14.0 1 21
r 0.601 20 19 cbr 500 ------- 4 20.0 14.0 1 23
+ 0.601 19 13 cbr 500 ------- 4 20.0 14.0 1 23
r 0.601 21 19 cbr 500 ------- 4 21.0 14.0 1 25
+ 0.601 19 13 cbr 500 ------- 4 21.0 14.0 1 25
- 0.601333 4 13 cbr 1000 ------- 0 1.0 14.0 0 2
- 0.601333 9 13 cbr 1000 ------- 1 6.0 14.0 0 10
- 0.601333 15 13 cbr 1000 ------- 3 17.0 14.0 0 18
- 0.601333 19 13 cbr 1000 ------- 4 21.0 14.0 0 24
- 0.602 4 13 cbr 1000 ------- 0 2.0 14.0 0 4
- 0.602 9 13 cbr 1000 ------- 1 7.0 14.0 0 12
- 0.602 15 13 cbr 1000 ------- 3 18.0 14.0 0 20
- 0.602 19 13 cbr 500 ------- 4 20.0 14.0 1 23
- 0.602333 19 13 cbr 500 ------- 4 21.0 14.0 1 25
- 0.602667 4 13 cbr 1000 ------- 0 3.0 14.0 0 6
- 0.602667 9 13 cbr 1000 ------- 1 8.0 14.0 0 14
- 0.602667 15 13 cbr 500 ------- 3 16.0 14.0 1 17
- 0.603 15 13 cbr 500 ------- 3 17.0 14.0 1 19
- 0.603333 15 13 cbr 500 ------- 3 18.0 14.0 1 21
- 0.603333 4 13 cbr 500 ------- 0 0.0 14.0 1 1
- 0.603333 9 13 cbr 500 ------- 1 5.0 14.0 1 9
- 0.603667 4 13 cbr 500 ------- 0 1.0 14.0 1 3
- 0.603667 9 13 cbr 500 ------- 1 6.0 14.0 1 11
- 0.604 4 13 cbr 500 ------- 0 2.0 14.0 1 5
- 0.604 9 13 cbr 500 ------- 1 7.0 14.0 1 13
- 0.604333 4 13 cbr 500 ------- 0 3.0 14.0 1 7
- 0.604333 9 13 cbr 500 ------- 1 8.0 14.0 1 15
+ 0.7 0 4 cbr 1000 ------- 0 0.0 14.0 2 26
- 0.7 0 4 cbr 1000 ------- 0 0.0 14.0 2 26
+ 0.7 0 4 cbr 500 ------- 0 0.0 14.0 3 27
+ 0.7 1 4 cbr 1000 ------- 0 1.0 14.0 2 28
- 0.7 1 4 cbr 1000 ------- 0 1.0 14.0 2 28
+ 0.7 1 4 cbr 500 ------- 0 1.0 14.0 3 29
+ 0.7 2 4 cbr 1000 ------- 0 2.0 14.0 2 30
- 0.7 2 4 cbr 1000 ------- 0 2.0 14.0 2 30
+ 0.7 2 4 cbr 500 ------- 0 2.0 14.0 3 31
+ 0.7 3 4 cbr 1000 ------- 0 3.0 14.0 2 32
- 0.7 3 4 cbr 1000 ------- 0 3.0 14.0 2 32
+ 0.7 3 4 cbr 500 ------- 0 3.0 14.0 3 33
+ 0.7 5 9 cbr 1000 ------- 1 5.0 14.0 2 34
- 0.7 5 9 cbr 1000 ------- 1 5.0 14.0 2 34
+ 0.7 5 9 cbr 500 ------- 1 5.0 14.0 3 35
+ 0.7 6 9 cbr 1000 ------- 1 6.0 14.0 2 36
- 0.7 6 9 cbr 1000 ------- 1 6.0 14.0 2 36
+ 0.7 6 9 cbr 500 ------- 1 6.0 14.0 3 37
+ 0.7 7 9 cbr 1000 ------- 1 7.0 14.0 2 38
- 0.7 7 9 cbr 1000 ------- 1 7.0 14.0 2 38
+ 0.7 7 9 cbr 500 ------- 1 7.0 14.0 3 39
+ 0.7 8 9 cbr 1000 ------- 1 8.0 14.0 2 40
- 0.7 8 9 cbr 1000 ------- 1 8.0 14.0 2 40
+ 0.7 8 9 cbr 500 ------- 1 8.0 14.0 3 41
+ 0.7 16 15 cbr 1000 ------- 3 16.0 14.0 2 42
- 0.7 16 15 cbr 1000 ------- 3 16.0 14.0 2 42
+ 0.7 16 15 cbr 500 ------- 3 16.0 14.0 3 43
+ 0.7 17 15 cbr 1000 ------- 3 17.0 14.0 2 44
- 0.7 17 15 cbr 1000 ------- 3 17.0 14.0 2 44
+ 0.7 17 15 cbr 500 ------- 3 17.0 14.0 3 45
+ 0.7 18 15 cbr 1000 ------- 3 18.0 14.0 2 46
- 0.7 18 15 cbr 1000 ------- 3 18.0 14.0 2 46
+ 0.7 18 15 cbr 500 ------- 3 18.0 14.0 3 47
+ 0.7 20 19 cbr 1000 ------- 4 20.0 14.0 2 48
- 0.7 20 19 cbr 1000 ------- 4 20.0 14.0 2 48
+ 0.7 20 19 cbr 500 ------- 4 20.0 14.0 3 49
+ 0.7 21 19 cbr 1000 ------- 4 21.0 14.0 2 50
- 0.7 21 19 cbr 1000 ------- 4 21.0 14.0 2 50
+ 0.7 21 19 cbr 500 ------- 4 21.0 14.0 3 51
- 0.700667 0 4 cbr 500 ------- 0 0.0 14.0 3 27
- 0.700667 1 4 cbr 500 ------- 0 1.0 14.0 3 29
- 0.700667 2 4 cbr 500 ------- 0 2.0 14.0 3 31
- 0.700667 3 4 cbr 500 ------- 0 3.0 14.0 3 33
- 0.700667 5 9 cbr 500 ------- 1 5.0 14.0 3 35
- 0.700667 6 9 cbr 500 ------- 1 6.0 14.0 3 37
- 0.700667 7 9 cbr 500 ------- 1 7.0 14.0 3 39
- 0.700667 8 9 cbr 500 ------- 1 8.0 14.0 3 41
- 0.700667 16 15 cbr 500 ------- 3 16.0 14.0 3 43
- 0.700667 17 15 cbr 500 ------- 3 17.0 14.0 3 45
- 0.700667 18 15 cbr 500 ------- 3 18.0 14.0 3 47
- 0.700667 20 19 cbr 500 ------- 4 20.0 14.0 3 49
- 0.700667 21 19 cbr 500 ------- 4 21.0 14.0 3 51
r 0.701333 4 13 cbr 1000 ------- 0 0.0 14.0 0 0
+ 0.701333 13 14 cbr 1000 ------- 0 0.0 14.0 0 0
- 0.701333 13 14 cbr 1000 ------- 0 0.0 14.0 0 0
r 0.701333 9 13 cbr 1000 ------- 1 5.0 14.0 0 8
+ 0.701333 13 14 cbr 1000 ------- 1 5.0 14.0 0 8
r 0.701333 15 13 cbr 1000 ------- 3 16.0 14.0 0 16
+ 0.701333 13 14 cbr 1000 ------- 3 16.0 14.0 0 16
r 0.701333 19 13 cbr 1000 ------- 4 20.0 14.0 0 22
+ 0.701333 13 14 cbr 1000 ------- 4 20.0 14.0 0 22
r 0.702 4 13 cbr 1000 ------- 0 1.0 14.0 0 2
+ 0.702 13 14 cbr 1000 ------- 0 1.0 14.0 0 2
r 0.702 9 13 cbr 1000 ------- 1 6.0 14.0 0 10
+ 0.702 13 14 cbr 1000 ------- 1 6.0 14.0 0 10
r 0.702 15 13 cbr 1000 ------- 3 17.0 14.0 0 18
+ 0.702 13 14 cbr 1000 ------- 3 17.0 14.0 0 18
r 0.702 19 13 cbr 1000 ------- 4 21.0 14.0 0 24
+ 0.702 13 14 cbr 1000 ------- 4 21.0 14.0 0 24
r 0.702333 19 13 cbr 500 ------- 4 20.0 14.0 1 23
+ 0.702333 13 14 cbr 500 ------- 4 20.0 14.0 1 23
- 0.702667 13 14 cbr 1000 ------- 1 5.0 14.0 0 8
r 0.702667 4 13 cbr 1000 ------- 0 2.0 14.0 0 4
+ 0.702667 13 14 cbr 1000 ------- 0 2.0 14.0 0 4
r 0.702667 9 13 cbr 1000 ------- 1 7.0 14.0 0 12
+ 0.702667 13 14 cbr 1000 ------- 1 7.0 14.0 0 12
r 0.702667 15 13 cbr 1000 ------- 3 18.0 14.0 0 20
+ 0.702667 13 14 cbr 1000 ------- 3 18.0 14.0 0 20
r 0.702667 19 13 cbr 500 ------- 4 21.0 14.0 1 25
+ 0.702667 13 14 cbr 500 ------- 4 21.0 14.0 1 25
r 0.703 15 13 cbr 500 ------- 3 16.0 14.0 1 17
+ 0.703 13 14 cbr 500 ------- 3 16.0 14.0 1 17
r 0.703333 4 13 cbr 1000 ------- 0 3.0 14.0 0 6
+ 0.703333 13 14 cbr 1000 ------- 0 3.0 14.0 0 6
r 0.703333 9 13 cbr 1000 ------- 1 8.0 14.0 0 14
+ 0.703333 13 14 cbr 1000 ------- 1 8.0 14.0 0 14
r 0.703333 15 13 cbr 500 ------- 3 17.0 14.0 1 19
+ 0.703333 13 14 cbr 500 ------- 3 17.0 14.0 1 19
r 0.703667 15 13 cbr 500 ------- 3 18.0 14.0 1 21
+ 0.703667 13 14 cbr 500 ------- 3 18.0 14.0 1 21
r 0.703667 4 13 cbr 500 ------- 0 0.0 14.0 1 1
+ 0.703667 13 14 cbr 500 ------- 0 0.0 14.0 1 1
r 0.703667 9 13 cbr 500 ------- 1 5.0 14.0 1 9
+ 0.703667 13 14 cbr 500 ------- 1 5.0 14.0 1 9
- 0.704 13 14 cbr 1000 ------- 3 16.0 14.0 0 16
r 0.704 4 13 cbr 500 ------- 0 1.0 14.0 1 3
+ 0.704 13 14 cbr 500 ------- 0 1.0 14.0 1 3
r 0.704 9 13 cbr 500 ------- 1 6.0 14.0 1 11
+ 0.704 13 14 cbr 500 ------- 1 6.0 14.0 1 11
r 0.704333 4 13 cbr 500 ------- 0 2.0 14.0 1 5
+ 0.704333 13 14 cbr 500 ------- 0 2.0 14.0 1 5
r 0.704333 9 13 cbr 500 ------- 1 7.0 14.0 1 13
+ 0.704333 13 14 cbr 500 ------- 1 7.0 14.0 1 13
r 0.704667 4 13 cbr 500 ------- 0 3.0 14.0 1 7
+ 0.704667 13 14 cbr 500 ------- 0 3.0 14.0 1 7
r 0.704667 9 13 cbr 500 ------- 1 8.0 14.0 1 15
+ 0.704667 13 14 cbr 500 ------- 1 8.0 14.0 1 15
- 0.705333 13 14 cbr 1000 ------- 4 20.0 14.0 0 22
- 0.706667 13 14 cbr 1000 ------- 0 1.0 14.0 0 2
- 0.708 13 14 cbr 1000 ------- 1 6.0 14.0 0 10
- 0.709333 13 14 cbr 1000 ------- 3 17.0 14.0 0 18
- 0.710667 13 14 cbr 1000 ------- 4 21.0 14.0 0 24
- 0.712 13 14 cbr 500 ------- 4 20.0 14.0 1 23
- 0.712667 13 14 cbr 1000 ------- 0 2.0 14.0 0 4
- 0.714 13 14 cbr 1000 ------- 1 7.0 14.0 0 12
- 0.715333 13 14 cbr 1000 ------- 3 18.0 14.0 0 20
- 0.716667 13 14 cbr 500 ------- 4 21.0 14.0 1 25
- 0.717333 13 14 cbr 500 ------- 3 16.0 14.0 1 17
- 0.718 13 14 cbr 1000 ------- 0 3.0 14.0 0 6
- 0.719333 13 14 cbr 1000 ------- 1 8.0 14.0 0 14
- 0.720667 13 14 cbr 500 ------- 3 17.0 14.0 1 19
- 0.721333 13 14 cbr 500 ------- 3 18.0 14.0 1 21
- 0.722 13 14 cbr 500 ------- 0 0.0 14.0 1 1
- 0.722667 13 14 cbr 500 ------- 1 5.0 14.0 1 9
- 0.723333 13 14 cbr 500 ------- 0 1.0 14.0 1 3
- 0.724 13 14 cbr 500 ------- 1 6.0 14.0 1 11
- 0.724667 13 14 cbr 500 ------- 0 2.0 14.0 1 5
- 0.725333 13 14 cbr 500 ------- 1 7.0 14.0 1 13
- 0.726 13 14 cbr 500 ------- 0 3.0 14.0 1 7
- 0.726667 13 14 cbr 500 ------- 1 8.0 14.0 1 15
r 0.800667 0 4 cbr 1000 ------- 0 0.0 14.0 2 26
+ 0.800667 4 13 cbr 1000 ------- 0 0.0 14.0 2 26
- 0.800667 4 13 cbr 1000 ------- 0 0.0 14.0 2 26
r 0.800667 1 4 cbr 1000 ------- 0 1.0 14.0 2 28
+ 0.800667 4 13 cbr 1000 ------- 0 1.0 14.0 2 28
r 0.800667 2 4 cbr 1000 ------- 0 2.0 14.0 2 30
+ 0.800667 4 13 cbr 1000 ------- 0 2.0 14.0 2 30
r 0.800667 3 4 cbr 1000 ------- 0 3.0 14.0 2 32
+ 0.800667 4 13 cbr 1000 ------- 0 3.0 14.0 2 32
r 0.800667 5 9 cbr 1000 ------- 1 5.0 14.0 2 34
+ 0.800667 9 13 cbr 1000 ------- 1 5.0 14.0 2 34
- 0.800667 9 13 cbr 1000 ------- 1 5.0 14.0 2 34
r 0.800667 6 9 cbr 1000 ------- 1 6.0 14.0 2 36
+ 0.800667 9 13 cbr 1000 ------- 1 6.0 14.0 2 36
r 0.800667 7 9 cbr 1000 ------- 1 7.0 14.0 2 38
+ 0.800667 9 13 cbr 1000 ------- 1 7.0 14.0 2 38
r 0.800667 8 9 cbr 1000 ------- 1 8.0 14.0 2 40
+ 0.800667 9 13 cbr 1000 ------- 1 8.0 14.0 2 40
r 0.800667 16 15 cbr 1000 ------- 3 16.0 14.0 2 42
+ 0.800667 15 13 cbr 1000 ------- 3 16.0 14.0 2 42
- 0.800667 15 13 cbr 1000 ------- 3 16.0 14.0 2 42
r 0.800667 17 15 cbr 1000 ------- 3 17.0 14.0 2 44
+ 0.800667 15 13 cbr 1000 ------- 3 17.0 14.0 2 44
r 0.800667 18 15 cbr 1000 ------- 3 18.0 14.0 2 46
+ 0.800667 15 13 cbr 1000 ------- 3 18.0 14.0 2 46
r 0.800667 20 19 cbr 1000 ------- 4 20.0 14.0 2 48
+ 0.800667 19 13 cbr 1000 ------- 4 20.0 14.0 2 48
- 0.800667 19 13 cbr 1000 ------- 4 20.0 14.0 2 48
r 0.800667 21 19 cbr 1000 ------- 4 21.0 14.0 2 50
+ 0.800667 19 13 cbr 1000 ------- 4 21.0 14.0 2 50
r 0.801 0 4 cbr 500 ------- 0 0.0 14.0 3 27
+ 0.801 4 13 cbr 500 ------- 0 0.0 14.0 3 27
r 0.801 1 4 cbr 500 ------- 0 1.0 14.0 3 29
+ 0.801 4 13 cbr 500 ------- 0 1.0 14.0 3 29
r 0.801 2 4 cbr 500 ------- 0 2.0 14.0 3 31
+ 0.801 4 13 cbr 500 ------- 0 2.0 14.0 3 31
r 0.801 3 4 cbr 500 ------- 0 3.0 14.0 3 33
+ 0.801 4 13 cbr 500 ------- 0 3.0 14.0 3 33
r 0.801 5 9 cbr 500 ------- 1 5.0 14.0 3 35
+ 0.801 9 13 cbr 500 ------- 1 5.0 14.0 3 35
r 0.801 6 9 cbr 500 ------- 1 6.0 14.0 3 37
+ 0.801 9 13 cbr 500 ------- 1 6.0 14.0 3 37
r 0.801 7 9 cbr 500 ------- 1 7.0 14.0 3 39
+ 0.801 9 13 cbr 500 ------- 1 7.0 14.0 3 39
r 0.801 8 9 cbr 500 ------- 1 8.0 14.0 3 41
+ 0.801 9 13 cbr 500 ------- 1 8.0 14.0 3 41
r 0.801 16 15 cbr 500 ------- 3 16.0 14.0 3 43
+ 0.801 15 13 cbr 500 ------- 3 16.0 14.0 3 43
r 0.801 17 15 cbr 500 ------- 3 17.0 14.0 3 45
+ 0.801 15 13 cbr 500 ------- 3 17.0 14.0 3 45
r 0.801 18 15 cbr 500 ------- 3 18.0 14.0 3 47
+ 0.801 15 13 cbr 500 ------- 3 18.0 14.0 3 47
r 0.801 20 19 cbr 500 ------- 4 20.0 14.0 3 49
+ 0.801 19 13 cbr 500 ------- 4 20.0 14.0 3 49
r 0.801 21 19 cbr 500 ------- 4 21.0 14.0 3 51
+ 0.801 19 13 cbr 500 ------- 4 21.0 14.0 3 51
- 0.801333 4 13 cbr 1000 ------- 0 1.0 14.0 2 28
- 0.801333 9 13 cbr 1000 ------- 1 6.0 14.0 2 36
- 0.801333 15 13 cbr 1000 ------- 3 17.0 14.0 2 44
- 0.801333 19 13 cbr 1000 ------- 4 21.0 14.0 2 50
- 0.802 4 13 cbr 1000 ------- 0 2.0 14.0 2 30
- 0.802 9 13 cbr 1000 ------- 1 7.0 14.0 2 38
- 0.802 15 13 cbr 1000 ------- 3 18.0 14.0 2 46
- 0.802 19 13 cbr 500 ------- 4 20.0 14.0 3 49
- 0.802333 19 13 cbr 500 ------- 4 21.0 14.0 3 51
- 0.802667 4 13 cbr 1000 ------- 0 3.0 14.0 2 32
- 0.802667 9 13 cbr 1000 ------- 1 8.0 14.0 2 40
- 0.802667 15 13 cbr 500 ------- 3 16.0 14.0 3 43
- 0.803 15 13 cbr 500 ------- 3 17.0 14.0 3 45
- 0.803333 15 13 cbr 500 ------- 3 18.0 14.0 3 47
- 0.803333 4 13 cbr 500 ------- 0 0.0 14.0 3 27
- 0.803333 9 13 cbr 500 ------- 1 5.0 14.0 3 35
- 0.803667 4 13 cbr 500 ------- 0 1.0 14.0 3 29
- 0.803667 9 13 cbr 500 ------- 1 6.0 14.0 3 37
- 0.804 4 13 cbr 500 ------- 0 2.0 14.0 3 31
- 0.804 9 13 cbr 500 ------- 1 7.0 14.0 3 39
- 0.804333 4 13 cbr 500 ------- 0 3.0 14.0 3 33
- 0.804333 9 13 cbr 500 ------- 1 8.0 14.0 3 41
+ 0.9 0 4 cbr 1000 ------- 0 0.0 14.0 4 52
- 0.9 0 4 cbr 1000 ------- 0 0.0 14.0 4 52
+ 0.9 0 4 cbr 500 ------- 0 0.0 14.0 5 53
+ 0.9 1 4 cbr 1000 ------- 0 1.0 14.0 4 54
- 0.9 1 4 cbr 1000 ------- 0 1.0 14.0 4 54
+ 0.9 1 4 cbr 500 ------- 0 1.0 14.0 5 55
+ 0.9 2 4 cbr 1000 ------- 0 2.0 14.0 4 56
- 0.9 2 4 cbr 1000 ------- 0 2.0 14.0 4 56
+ 0.9 2 4 cbr 500 ------- 0 2.0 14.0 5 57
+ 0.9 3 4 cbr 1000 ------- 0 3.0 14.0 4 58
- 0.9 3 4 cbr 1000 ------- 0 3.0 14.0 4 58
+ 0.9 3 4 cbr 500 ------- 0 3.0 14.0 5 59
+ 0.9 5 9 cbr 1000 ------- 1 5.0 14.0 4 60
- 0.9 5 9 cbr 1000 ------- 1 5.0 14.0 4 60
+ 0.9 5 9 cbr 500 ------- 1 5.0 14.0 5 61
+ 0.9 6 9 cbr 1000 ------- 1 6.0 14.0 4 62
- 0.9 6 9 cbr 1000 ------- 1 6.0 14.0 4 62
+ 0.9 6 9 cbr 500 ------- 1 6.0 14.0 5 63
+ 0.9 7 9 cbr 1000 ------- 1 7.0 14.0 4 64
- 0.9 7 9 cbr 1000 ------- 1 7.0 14.0 4 64
+ 0.9 7 9 cbr 500 ------- 1 7.0 14.0 5 65
+ 0.9 8 9 cbr 1000 ------- 1 8.0 14.0 4 66
- 0.9 8 9 cbr 1000 ------- 1 8.0 14.0 4 66
+ 0.9 8 9 cbr 500 ------- 1 8.0 14.0 5 67
+ 0.9 16 15 cbr 1000 ------- 3 16.0 14.0 4 68
- 0.9 16 15 cbr 1000 ------- 3 16.0 14.0 4 68
+ 0.9 16 15 cbr 500 ------- 3 16.0 14.0 5 69
+ 0.9 17 15 cbr 1000 ------- 3 17.0 14.0 4 70
- 0.9 17 15 cbr 1000 ------- 3 17.0 14.0 4 70
+ 0.9 17 15 cbr 500 ------- 3 17.0 14.0 5 71
+ 0.9 18 15 cbr 1000 ------- 3 18.0 14.0 4 72
- 0.9 18 15 cbr 1000 ------- 3 18.0 14.0 4 72
+ 0.9 18 15 cbr 500 ------- 3 18.0 14.0 5 73
+ 0.9 20 19 cbr 1000 ------- 4 20.0 14.0 4 74
- 0.9 20 19 cbr 1000 ------- 4 20.0 14.0 4 74
+ 0.9 20 19 cbr 500 ------- 4 20.0 14.0 5 75
+ 0.9 21 19 cbr 1000 ------- 4 21.0 14.0 4 76
- 0.9 21 19 cbr 1000 ------- 4 21.0 14.0 4 76
+ 0.9 21 19 cbr 500 ------- 4 21.0 14.0 5 77
- 0.900667 0 4 cbr 500 ------- 0 0.0 14.0 5 53
- 0.900667 1 4 cbr 500 ------- 0 1.0 14.0 5 55
- 0.900667 2 4 cbr 500 ------- 0 2.0 14.0 5 57
- 0.900667 3 4 cbr 500 ------- 0 3.0 14.0 5 59
- 0.900667 5 9 cbr 500 ------- 1 5.0 14.0 5 61
- 0.900667 6 9 cbr 500 ------- 1 6.0 14.0 5 63
- 0.900667 7 9 cbr 500 ------- 1 7.0 14.0 5 65
- 0.900667 8 9 cbr 500 ------- 1 8.0 14.0 5 67
- 0.900667 16 15 cbr 500 ------- 3 16.0 14.0 5 69
- 0.900667 17 15 cbr 500 ------- 3 17.0 14.0 5 71
- 0.900667 18 15 cbr 500 ------- 3 18.0 14.0 5 73
- 0.900667 20 19 cbr 500 ------- 4 20.0 14.0 5 75
- 0.900667 21 19 cbr 500 ------- 4 21.0 14.0 5 77
r 0.901333 4 13 cbr 1000 ------- 0 0.0 14.0 2 26
+ 0.901333 13 14 cbr 1000 ------- 0 0.0 14.0 2 26
- 0.901333 13 14 cbr 1000 ------- 0 0.0 14.0 2 26
r 0.901333 9 13 cbr 1000 ------- 1 5.0 14.0 2 34
+ 0.901333 13 14 cbr 1000 ------- 1 5.0 14.0 2 34
r 0.901333 15 13 cbr 1000 ------- 3 16.0 14.0 2 42
+ 0.901333 13 14 cbr 1000 ------- 3 16.0 14.0 2 42
r 0.901333 19 13 cbr 1000 ------- 4 20.0 14.0 2 48
+ 0.901333 13 14 cbr 1000 ------- 4 20.0 14.0 2 48
r 0.902 4 13 cbr 1000 ------- 0 1.0 14.0 2 28
+ 0.902 13 14 cbr 1000 ------- 0 1.0 14.0 2 28
r 0.902 9 13 cbr 1000 ------- 1 6.0 14.0 2 36
+ 0.902 13 14 cbr 1000 ------- 1 6.0 14.0 2 36
r 0.902 15 13 cbr 1000 ------- 3 17.0 14.0 2 44
+ 0.902 13 14 cbr 1000 ------- 3 17.0 14.0 2 44
r 0.902 19 13 cbr 1000 ------- 4 21.0 14.0 2 50
+ 0.902 13 14 cbr 1000 ------- 4 21.0 14.0 2 50
r 0.902333 19 13 cbr 500 ------- 4 20.0 14.0 3 49
+ 0.902333 13 14 cbr 500 ------- 4 20.0 14.0 3 49
- 0.902667 13 14 cbr 1000 ------- 1 5.0 14.0 2 34
r 0.902667 13 14 cbr 1000 ------- 0 0.0 14.0 0 0
r 0.902667 4 13 cbr 1000 ------- 0 2.0 14.0 2 30
+ 0.902667 13 14 cbr 1000 ------- 0 2.0 14.0 2 30
r 0.902667 9 13 cbr 1000 ------- 1 7.0 14.0 2 38
+ 0.902667 13 14 cbr 1000 ------- 1 7.0 14.0 2 38
r 0.902667 15 13 cbr 1000 ------- 3 18.0 14.0 2 46
+ 0.902667 13 14 cbr 1000 ------- 3 18.0 14.0 2 46
r 0.902667 19 13 cbr 500 ------- 4 21.0 14.0 3 51
+ 0.902667 13 14 cbr 500 ------- 4 21.0 14.0 3 51
r 0.903 15 13 cbr 500 ------- 3 16.0 14.0 3 43
+ 0.903 13 14 cbr 500 ------- 3 16.0 14.0 3 43
r 0.903333 4 13 cbr 1000 ------- 0 3.0 14.0 2 32
+ 0.903333 13 14 cbr 1000 ------- 0 3.0 14.0 2 32
r 0.903333 9 13 cbr 1000 ------- 1 8.0 14.0 2 40
+ 0.903333 13 14 cbr 1000 ------- 1 8.0 14.0 2 40
r 0.903333 15 13 cbr 500 ------- 3 17.0 14.0 3 45
+ 0.903333 13 14 cbr 500 ------- 3 17.0 14.0 3 45
r 0.903667 15 13 cbr 500 ------- 3 18.0 14.0 3 47
+ 0.903667 13 14 cbr 500 ------- 3 18.0 14.0 3 47
r 0.903667 4 13 cbr 500 ------- 0 0.0 14.0 3 27
+ 0.903667 13 14 cbr 500 ------- 0 0.0 14.0 3 27
r 0.903667 9 13 cbr 500 ------- 1 5.0 14.0 3 35
+ 0.903667 13 14 cbr 500 ------- 1 5.0 14.0 3 35
- 0.904 13 14 cbr 1000 ------- 3 16.0 14.0 2 42
r 0.904 13 14 cbr 1000 ------- 1 5.0 14.0 0 8
r 0.904 4 13 cbr 500 ------- 0 1.0 14.0 3 29
+ 0.904 13 14 cbr 500 ------- 0 1.0 14.0 3 29
r 0.904 9 13 cbr 500 ------- 1 6.0 14.0 3 37
+ 0.904 13 14 cbr 500 ------- 1 6.0 14.0 3 37
r 0.904333 4 13 cbr 500 ------- 0 2.0 14.0 3 31
+ 0.904333 13 14 cbr 500 ------- 0 2.0 14.0 3 31
r 0.904333 9 13 cbr 500 ------- 1 7.0 14.0 3 39
+ 0.904333 13 14 cbr 500 ------- 1 7.0 14.0 3 39
r 0.904667 4 13 cbr 500 ------- 0 3.0 14.0 3 33
+ 0.904667 13 14 cbr 500 ------- 0 3.0 14.0 3 33
r 0.904667 9 13 cbr 500 ------- 1 8.0 14.0 3 41
+ 0.904667 13 14 cbr 500 ------- 1 8.0 14.0 3 41
- 0.905333 13 14 cbr 1000 ------- 4 20.0 14.0 2 48
r 0.905333 13 14 cbr 1000 ------- 3 16.0 14.0 0 16
- 0.906667 13 14 cbr 1000 ------- 0 1.0 14.0 2 28
r 0.906667 13 14 cbr 1000 ------- 4 20.0 14.0 0 22
- 0.908 13 14 cbr 1000 ------- 1 6.0 14.0 2 36
r 0.908 13 14 cbr 1000 ------- 0 1.0 14.0 0 2
- 0.909333 13 14 cbr 1000 ------- 3 17.0 14.0 2 44
r 0.909333 13 14 cbr 1000 ------- 1 6.0 14.0 0 10
- 0.910667 13 14 cbr 1000 ------- 4 21.0 14.0 2 50
r 0.910667 13 14 cbr 1000 ------- 3 17.0 14.0 0 18
- 0.912 13 14 cbr 500 ------- 4 20.0 14.0 3 49
r 0.912 13 14 cbr 1000 ------- 4 21.0 14.0 0 24
r 0.912667 13 14 cbr 500 ------- 4 20.0 14.0 1 23
- 0.912667 13 14 cbr 1000 ------- 0 2.0 14.0 2 30
- 0.914 13 14 cbr 1000 ------- 1 7.0 14.0 2 38
r 0.914 13 14 cbr 1000 ------- 0 2.0 14.0 0 4
- 0.915333 13 14 cbr 1000 ------- 3 18.0 14.0 2 46
r 0.915333 13 14 cbr 1000 ------- 1 7.0 14.0 0 12
- 0.916667 13 14 cbr 500 ------- 4 21.0 14.0 3 51
r 0.916667 13 14 cbr 1000 ------- 3 18.0 14.0 0 20
r 0.917333 13 14 cbr 500 ------- 4 21.0 14.0 1 25
- 0.917333 13 14 cbr 500 ------- 3 16.0 14.0 3 43
r 0.918 13 14 cbr 500 ------- 3 16.0 14.0 1 17
- 0.918 13 14 cbr 1000 ------- 0 3.0 14.0 2 32
- 0.919333 13 14 cbr 1000 ------- 1 8.0 14.0 2 40
r 0.919333 13 14 cbr 1000 ------- 0 3.0 14.0 0 6
- 0.920667 13 14 cbr 500 ------- 3 17.0 14.0 3 45
r 0.920667 13 14 cbr 1000 ------- 1 8.0 14.0 0 14
r 0.921333 13 14 cbr 500 ------- 3 17.0 14.0 1 19
- 0.921333 13 14 cbr 500 ------- 3 18.0 14.0 3 47
r 0.922 13 14 cbr 500 ------- 3 18.0 14.0 1 21
- 0.922 13 14 cbr 500 ------- 0 0.0 14.0 3 27
r 0.922667 13 14 cbr 500 ------- 0 0.0 14.0 1 1
- 0.922667 13 14 cbr 500 ------- 1 5.0 14.0 3 35
r 0.923333 13 14 cbr 500 ------- 1 5.0 14.0 1 9
- 0.923333 13 14 cbr 500 ------- 0 1.0 14.0 3 29
r 0.924 13 14 cbr 500 ------- 0 1.0 14.0 1 3
- 0.924 13 14 cbr 500 ------- 1 6.0 14.0 3 37
r 0.924667 13 14 cbr 500 ------- 1 6.0 14.0 1 11
- 0.924667 13 14 cbr 500 ------- 0 2.0 14.0 3 31
r 0.925333 13 14 cbr 500 ------- 0 2.0 14.0 1 5
- 0.925333 13 14 cbr 500 ------- 1 7.0 14.0 3 39
r 0.926 13 14 cbr 500 ------- 1 7.0 14.0 1 13
- 0.926 13 14 cbr 500 ------- 0 3.0 14.0 3 33
r 0.926667 13 14 cbr 500 ------- 0 3.0 14.0 1 7
- 0.926667 13 14 cbr 500 ------- 1 8.0 14.0 3 41
r 0.927333 13 14 cbr 500 ------- 1 8.0 14.0 1 15
r 1.000667 0 4 cbr 1000 ------- 0 0.0 14.0 4 52
+ 1.000667 4 13 cbr 1000 ------- 0 0.0 14.0 4 52
- 1.000667 4 13 cbr 1000 ------- 0 0.0 14.0 4 52
r 1.000667 1 4 cbr 1000 ------- 0 1.0 14.0 4 54
+ 1.000667 4 13 cbr 1000 ------- 0 1.0 14.0 4 54
r 1.000667 2 4 cbr 1000 ------- 0 2.0 14.0 4 56
+ 1.000667 4 13 cbr 1000 ------- 0 2.0 14.0 4 56
r 1.000667 3 4 cbr 1000 ------- 0 3.0 14.0 4 58
+ 1.000667 4 13 cbr 1000 ------- 0 3.0 14.0 4 58
r 1.000667 5 9 cbr 1000 ------- 1 5.0 14.0 4 60
+ 1.000667 9 13 cbr 1000 ------- 1 5.0 14.0 4 60
- 1.000667 9 13 cbr 1000 ------- 1 5.0 14.0 4 60
r 1.000667 6 9 cbr 1000 ------- 1 6.0 14.0 4 62
+ 1.000667 9 13 cbr 1000 ------- 1 6.0 14.0 4 62
r 1.000667 7 9 cbr 1000 ------- 1 7.0 14.0 4 64
+ 1.000667 9 13 cbr 1000 ------- 1 7.0 14.0 4 64
r 1.000667 8 9 cbr 1000 ------- 1 8.0 14.0 4 66
+ 1.000667 9 13 cbr 1000 ------- 1 8.0 14.0 4 66
r 1.000667 16 15 cbr 1000 ------- 3 16.0 14.0 4 68
+ 1.000667 15 13 cbr 1000 ------- 3 16.0 14.0 4 68
- 1.000667 15 13 cbr 1000 ------- 3 16.0 14.0 4 68
r 1.000667 17 15 cbr 1000 ------- 3 17.0 14.0 4 70
+ 1.000667 15 13 cbr 1000 ------- 3 17.0 14.0 4 70
r 1.000667 18 15 cbr 1000 ------- 3 18.0 14.0 4 72
+ 1.000667 15 13 cbr 1000 ------- 3 18.0 14.0 4 72
r 1.000667 20 19 cbr 1000 ------- 4 20.0 14.0 4 74
+ 1.000667 19 13 cbr 1000 ------- 4 20.0 14.0 4 74
- 1.000667 19 13 cbr 1000 ------- 4 20.0 14.0 4 74
r 1.000667 21 19 cbr 1000 ------- 4 21.0 14.0 4 76
+ 1.000667 19 13 cbr 1000 ------- 4 21.0 14.0 4 76
r 1.001 0 4 cbr 500 ------- 0 0.0 14.0 5 53
+ 1.001 4 13 cbr 500 ------- 0 0.0 14.0 5 53
r 1.001 1 4 cbr 500 ------- 0 1.0 14.0 5 55
+ 1.001 4 13 cbr 500 ------- 0 1.0 14.0 5 55
r 1.001 2 4 cbr 500 ------- 0 2.0 14.0 5 57
+ 1.001 4 13 cbr 500 ------- 0 2.0 14.0 5 57
r 1.001 3 4 cbr 500 ------- 0 3.0 14.0 5 59
+ 1.001 4 13 cbr 500 ------- 0 3.0 14.0 5 59
r 1.001 5 9 cbr 500 ------- 1 5.0 14.0 5 61
+ 1.001 9 13 cbr 500 ------- 1 5.0 14.0 5 61
r 1.001 6 9 cbr 500 ------- 1 6.0 14.0 5 63
+ 1.001 9 13 cbr 500 ------- 1 6.0 14.0 5 63
r 1.001 7 9 cbr 500 ------- 1 7.0 14.0 5 65
+ 1.001 9 13 cbr 500 ------- 1 7.0 14.0 5 65
r 1.001 8 9 cbr 500 ------- 1 8.0 14.0 5 67
+ 1.001 9 13 cbr 500 ------- 1 8.0 14.0 5 67
r 1.001 16 15 cbr 500 ------- 3 16.0 14.0 5 69
+ 1.001 15 13 cbr 500 ------- 3 16.0 14.0 5 69
r 1.001 17 15 cbr 500 ------- 3 17.0 14.0 5 71
+ 1.001 15 13 cbr 500 ------- 3 17.0 14.0 5 71
r 1.001 18 15 cbr 500 ------- 3 18.0 14.0 5 73
+ 1.001 15 13 cbr 500 ------- 3 18.0 14.0 5 73
r 1.001 20 19 cbr 500 ------- 4 20.0 14.0 5 75
+ 1.001 19 13 cbr 500 ------- 4 20.0 14.0 5 75
r 1.001 21 19 cbr 500 ------- 4 21.0 14.0 5 77
+ 1.001 19 13 cbr 500 ------- 4 21.0 14.0 5 77
- 1.001333 4 13 cbr 1000 ------- 0 1.0 14.0 4 54
- 1.001333 9 13 cbr 1000 ------- 1 6.0 14.0 4 62
- 1.001333 15 13 cbr 1000 ------- 3 17.0 14.0 4 70
- 1.001333 19 13 cbr 1000 ------- 4 21.0 14.0 4 76
- 1.002 4 13 cbr 1000 ------- 0 2.0 14.0 4 56
- 1.002 9 13 cbr 1000 ------- 1 7.0 14.0 4 64
- 1.002 15 13 cbr 1000 ------- 3 18.0 14.0 4 72
- 1.002 19 13 cbr 500 ------- 4 20.0 14.0 5 75
- 1.002333 19 13 cbr 500 ------- 4 21.0 14.0 5 77
- 1.002667 4 13 cbr 1000 ------- 0 3.0 14.0 4 58
- 1.002667 9 13 cbr 1000 ------- 1 8.0 14.0 4 66
- 1.002667 15 13 cbr 500 ------- 3 16.0 14.0 5 69
- 1.003 15 13 cbr 500 ------- 3 17.0 14.0 5 71
- 1.003333 4 13 cbr 500 ------- 0 0.0 14.0 5 53
- 1.003333 9 13 cbr 500 ------- 1 5.0 14.0 5 61
- 1.003333 15 13 cbr 500 ------- 3 18.0 14.0 5 73
- 1.003667 4 13 cbr 500 ------- 0 1.0 14.0 5 55
- 1.003667 9 13 cbr 500 ------- 1 6.0 14.0 5 63
- 1.004 4 13 cbr 500 ------- 0 2.0 14.0 5 57
- 1.004 9 13 cbr 500 ------- 1 7.0 14.0 5 65
- 1.004333 4 13 cbr 500 ------- 0 3.0 14.0 5 59
- 1.004333 9 13 cbr 500 ------- 1 8.0 14.0 5 67
+ 1.1 0 4 cbr 1000 ------- 0 0.0 14.0 6 78
- 1.1 0 4 cbr 1000 ------- 0 0.0 14.0 6 78
+ 1.1 0 4 cbr 500 ------- 0 0.0 14.0 7 79
+ 1.1 1 4 cbr 1000 ------- 0 1.0 14.0 6 80
- 1.1 1 4 cbr 1000 ------- 0 1.0 14.0 6 80
+ 1.1 1 4 cbr 500 ------- 0 1.0 14.0 7 81
+ 1.1 2 4 cbr 1000 ------- 0 2.0 14.0 6 82
- 1.1 2 4 cbr 1000 ------- 0 2.0 14.0 6 82
+ 1.1 2 4 cbr 500 ------- 0 2.0 14.0 7 83
+ 1.1 3 4 cbr 1000 ------- 0 3.0 14.0 6 84
- 1.1 3 4 cbr 1000 ------- 0 3.0 14.0 6 84
+ 1.1 3 4 cbr 500 ------- 0 3.0 14.0 7 85
+ 1.1 5 9 cbr 1000 ------- 1 5.0 14.0 6 86
- 1.1 5 9 cbr 1000 ------- 1 5.0 14.0 6 86
+ 1.1 5 9 cbr 500 ------- 1 5.0 14.0 7 87
+ 1.1 6 9 cbr 1000 ------- 1 6.0 14.0 6 88
- 1.1 6 9 cbr 1000 ------- 1 6.0 14.0 6 88
+ 1.1 6 9 cbr 500 ------- 1 6.0 14.0 7 89
+ 1.1 7 9 cbr 1000 ------- 1 7.0 14.0 6 90
- 1.1 7 9 cbr 1000 ------- 1 7.0 14.0 6 90
+ 1.1 7 9 cbr 500 ------- 1 7.0 14.0 7 91
+ 1.1 8 9 cbr 1000 ------- 1 8.0 14.0 6 92
- 1.1 8 9 cbr 1000 ------- 1 8.0 14.0 6 92
+ 1.1 8 9 cbr 500 ------- 1 8.0 14.0 7 93
+ 1.1 16 15 cbr 1000 ------- 3 16.0 14.0 6 94
- 1.1 16 15 cbr 1000 ------- 3 16.0 14.0 6 94
+ 1.1 16 15 cbr 500 ------- 3 16.0 14.0 7 95
+ 1.1 17 15 cbr 1000 ------- 3 17.0 14.0 6 96
- 1.1 17 15 cbr 1000 ------- 3 17.0 14.0 6 96
+ 1.1 17 15 cbr 500 ------- 3 17.0 14.0 7 97
+ 1.1 18 15 cbr 1000 ------- 3 18.0 14.0 6 98
- 1.1 18 15 cbr 1000 ------- 3 18.0 14.0 6 98
+ 1.1 18 15 cbr 500 ------- 3 18.0 14.0 7 99
+ 1.1 20 19 cbr 1000 ------- 4 20.0 14.0 6 100
- 1.1 20 19 cbr 1000 ------- 4 20.0 14.0 6 100
+ 1.1 20 19 cbr 500 ------- 4 20.0 14.0 7 101
+ 1.1 21 19 cbr 1000 ------- 4 21.0 14.0 6 102
- 1.1 21 19 cbr 1000 ------- 4 21.0 14.0 6 102
+ 1.1 21 19 cbr 500 ------- 4 21.0 14.0 7 103
- 1.100667 0 4 cbr 500 ------- 0 0.0 14.0 7 79
- 1.100667 1 4 cbr 500 ------- 0 1.0 14.0 7 81
- 1.100667 2 4 cbr 500 ------- 0 2.0 14.0 7 83
- 1.100667 3 4 cbr 500 ------- 0 3.0 14.0 7 85
- 1.100667 5 9 cbr 500 ------- 1 5.0 14.0 7 87
- 1.100667 6 9 cbr 500 ------- 1 6.0 14.0 7 89
- 1.100667 7 9 cbr 500 ------- 1 7.0 14.0 7 91
- 1.100667 8 9 cbr 500 ------- 1 8.0 14.0 7 93
- 1.100667 16 15 cbr 500 ------- 3 16.0 14.0 7 95
- 1.100667 17 15 cbr 500 ------- 3 17.0 14.0 7 97
- 1.100667 18 15 cbr 500 ------- 3 18.0 14.0 7 99
- 1.100667 20 19 cbr 500 ------- 4 20.0 14.0 7 101
- 1.100667 21 19 cbr 500 ------- 4 21.0 14.0 7 103
r 1.101333 4 13 cbr 1000 ------- 0 0.0 14.0 4 52
+ 1.101333 13 14 cbr 1000 ------- 0 0.0 14.0 4 52
- 1.101333 13 14 cbr 1000 ------- 0 0.0 14.0 4 52
r 1.101333 9 13 cbr 1000 ------- 1 5.0 14.0 4 60
+ 1.101333 13 14 cbr 1000 ------- 1 5.0 14.0 4 60
r 1.101333 15 13 cbr 1000 ------- 3 16.0 14.0 4 68
+ 1.101333 13 14 cbr 1000 ------- 3 16.0 14.0 4 68
r 1.101333 19 13 cbr 1000 ------- 4 20.0 14.0 4 74
+ 1.101333 13 14 cbr 1000 ------- 4 20.0 14.0 4 74
r 1.102 4 13 cbr 1000 ------- 0 1.0 14.0 4 54
+ 1.102 13 14 cbr 1000 ------- 0 1.0 14.0 4 54
r 1.102 9 13 cbr 1000 ------- 1 6.0 14.0 4 62
+ 1.102 13 14 cbr 1000 ------- 1 6.0 14.0 4 62