V -t * -v 1.0a5 -a 0
A -t * -n 1 -p 0 -o 0x7fffffff -c 30 -a 1
A -t * -h 1 -m 1073741823 -s 0
c -t * -i 4 -n violet
c -t * -i 0 -n black
c -t * -i 1 -n blue
c -t * -i 2 -n red
c -t * -i 3 -n orange
n -t * -a 17 -s 17 -S UP -v circle -c black -i black
n -t * -a 0 -s 0 -S UP -v circle -c black -i black
n -t * -a 18 -s 18 -S UP -v circle -c black -i black
n -t * -a 1 -s 1 -S UP -v circle -c black -i black
n -t * -a 20 -s 20 -S UP -v circle -c black -i black
n -t * -a 19 -s 19 -S UP -v circle -c violet -i violet
n -t * -a 2 -s 2 -S UP -v circle -c black -i black
n -t * -a 21 -s 21 -S UP -v circle -c black -i black
n -t * -a 3 -s 3 -S UP -v circle -c black -i black
n -t * -a 4 -s 4 -S UP -v circle -c black -i black
n -t * -a 5 -s 5 -S UP -v circle -c black -i black
n -t * -a 6 -s 6 -S UP -v circle -c black -i black
n -t * -a 7 -s 7 -S UP -v circle -c black -i black
n -t * -a 8 -s 8 -S UP -v circle -c black -i black
n -t * -a 9 -s 9 -S UP -v circle -c blue -i blue
n -t * -a 10 -s 10 -S UP -v circle -c red -i red
n -t * -a 11 -s 11 -S UP -v circle -c red -i red
n -t * -a 12 -s 12 -S UP -v circle -c red -i red
n -t * -a 13 -s 13 -S UP -v circle -c yellow -i yellow
n -t * -a 14 -s 14 -S UP -v circle -c green -i green
n -t * -a 15 -s 15 -S UP -v circle -c orange -i orange
n -t * -a 16 -s 16 -S UP -v circle -c black -i black
l -t * -s 0 -d 4 -S UP -r 12000000 -D 0.10000000000000001 -c black
l -t * -s 1 -d 4 -S UP -r 12000000 -D 0.10000000000000001 -c black
l -t * -s 2 -d 4 -S UP -r 12000000 -D 0.10000000000000001 -c black
l -t * -s 3 -d 4 -S UP -r 12000000 -D 0.10000000000000001 -c black
l -t * -s 4 -d 13 -S UP -r 12000000 -D 0.10000000000000001 -c black
l -t * -s 5 -d 9 -S UP -r 12000000 -D 0.10000000000000001 -c black
l -t * -s 6 -d 9 -S UP -r 12000000 -D 0.10000000000000001 -c black
l -t * -s 7 -d 9 -S UP -r 12000000 -D 0.10000000000000001 -c black
l -t * -s 8 -d 9 -S UP -r 12000000 -D 0.10000000000000001 -c black
l -t * -s 9 -d 13 -S UP -r 12000000 -D 0.10000000000000001 -c black
l -t * -s 10 -d 12 -S UP -r 12000000 -D 0.10000000000000001 -c black
l -t * -s 11 -d 12 -S UP -r 12000000 -D 0.10000000000000001 -c black
l -t * -s 12 -d 13 -S UP -r 12000000 -D 0.10000000000000001 -c black
l -t * -s 16 -d 15 -S UP -r 12000000 -D 0.10000000000000001 -c black
l -t * -s 17 -d 15 -S UP -r 12000000 -D 0.10000000000000001 -c black
l -t * -s 18 -d 15 -S UP -r 12000000 -D 0.10000000000000001 -c black
l -t * -s 15 -d 13 -S UP -r 12000000 -D 0.10000000000000001 -c black
l -t * -s 20 -d 19 -S UP -r 12000000 -D 0.10000000000000001 -c black
l -t * -s 21 -d 19 -S UP -r 12000000 -D 0.10000000000000001 -c black
l -t * -s 19 -d 13 -S UP -r 12000000 -D 0.10000000000000001 -c black
l -t * -s 13 -d 14 -S UP -r 6000000 -D 0.20000000000000001 -c black
+ -t 0.5 -s 0 -d 4 -p cbr -e 1000 -c 0 -i 0 -a 0 -x {0.0 14.0 0 ------- null}
- -t 0.5 -s 0 -d 4 -p cbr -e 1000 -c 0 -i 0 -a 0 -x {0.0 14.0 0 ------- null}
h -t 0.5 -s 0 -d 4 -p cbr -e 1000 -c 0 -i 0 -a 0 -x {0.0 14.0 -1 ------- null}
+ -t 0.5 -s 0 -d 4 -p cbr -e 500 -c 0 -i 1 -a 0 -x {0.0 14.0 1 ------- null}
+ -t 0.5 -s 1 -d 4 -p cbr -e 1000 -c 0 -i 2 -a 0 -x {1.0 14.0 0 ------- null}
- -t 0.5 -s 1 -d 4 -p cbr -e 1000 -c 0 -i 2 -a 0 -x {1.0 14.0 0 ------- null}
h -t 0.5 -s 1 -d 4 -p cbr -e 1000 -c 0 -i 2 -a 0 -x {1.0 14.0 -1 ------- null}
+ -t 0.5 -s 1 -d 4 -p cbr -e 500 -c 0 -i 3 -a 0 -x {1.0 14.0 1 ------- null}
+ -t 0.5 -s 2 -d 4 -p cbr -e 1000 -c 0 -i 4 -a 0 -x {2.0 14.0 0 ------- null}
- -t 0.5 -s 2 -d 4 -p cbr -e 1000 -c 0 -i 4 -a 0 -x {2.0 14.0 0 ------- null}
h -t 0.5 -s 2 -d 4 -p cbr -e 1000 -c 0 -i 4 -a 0 -x {2.0 14.0 -1 ------- null}
+ -t 0.5 -s 2 -d 4 -p cbr -e 500 -c 0 -i 5 -a 0 -x {2.0 14.0 1 ------- null}
+ -t 0.5 -s 3 -d 4 -p cbr -e 1000 -c 0 -i 6 -a 0 -x {3.0 14.0 0 ------- null}
- -t 0.5 -s 3 -d 4 -p cbr -e 1000 -c 0 -i 6 -a 0 -x {3.0 14.0 0 ------- null}
h -t 0.5 -s 3 -d 4 -p cbr -e 1000 -c 0 -i 6 -a 0 -x {3.0 14.0 -1 ------- null}
+ -t 0.5 -s 3 -d 4 -p cbr -e 500 -c 0 -i 7 -a 0 -x {3.0 14.0 1 ------- null}
+ -t 0.5 -s 5 -d 9 -p cbr -e 1000 -c 1 -i 8 -a 1 -x {5.0 14.0 0 ------- null}
- -t 0.5 -s 5 -d 9 -p cbr -e 1000 -c 1 -i 8 -a 1 -x {5.0 14.0 0 ------- null}
h -t 0.5 -s 5 -d 9 -p cbr -e 1000 -c 1 -i 8 -a 1 -x {5.0 14.0 -1 ------- null}
+ -t 0.5 -s 5 -d 9 -p cbr -e 500 -c 1 -i 9 -a 1 -x {5.0 14.0 1 ------- null}
+ -t 0.5 -s 6 -d 9 -p cbr -e 1000 -c 1 -i 10 -a 1 -x {6.0 14.0 0 ------- null}
- -t 0.5 -s 6 -d 9 -p cbr -e 1000 -c 1 -i 10 -a 1 -x {6.0 14.0 0 ------- null}
h -t 0.5 -s 6 -d 9 -p cbr -e 1000 -c 1 -i 10 -a 1 -x {6.0 14.0 -1 ------- null}
+ -t 0.5 -s 6 -d 9 -p cbr -e 500 -c 1 -i 11 -a 1 -x {6.0 14.0 1 ------- null}
+ -t 0.5 -s 7 -d 9 -p cbr -e 1000 -c 1 -i 12 -a 1 -x {7.0 14.0 0 ------- null}
- -t 0.5 -s 7 -d 9 -p cbr -e 1000 -c 1 -i 12 -a 1 -x {7.0 14.0 0 ------- null}
h -t 0.5 -s 7 -d 9 -p cbr -e 1000 -c 1 -i 12 -a 1 -x {7.0 14.0 -1 ------- null}
+ -t 0.5 -s 7 -d 9 -p cbr -e 500 -c 1 -i 13 -a 1 -x {7.0 14.0 1 ------- null}
+ -t 0.5 -s 8 -d 9 -p cbr -e 1000 -c 1 -i 14 -a 1 -x {8.0 14.0 0 ------- null}
- -t 0.5 -s 8 -d 9 -p cbr -e 1000 -c 1 -i 14 -a 1 -x {8.0 14.0 0 ------- null}
h -t 0.5 -s 8 -d 9 -p cbr -e 1000 -c 1 -i 14 -a 1 -x {8.0 14.0 -1 ------- null}
+ -t 0.5 -s 8 -d 9 -p cbr -e 500 -c 1 -i 15 -a 1 -x {8.0 14.0 1 ------- null}
+ -t 0.5 -s 16 -d 15 -p cbr -e 1000 -c 3 -i 16 -a 3 -x {16.0 14.0 0 ------- null}
- -t 0.5 -s 16 -d 15 -p cbr -e 1000 -c 3 -i 16 -a 3 -x {16.0 14.0 0 ------- null}
h -t 0.5 -s 16 -d 15 -p cbr -e 1000 -c 3 -i 16 -a 3 -x {16.0 14.0 -1 ------- null}
+ -t 0.5 -s 16 -d 15 -p cbr -e 500 -c 3 -i 17 -a 3 -x {16.0 14.0 1 ------- null}
+ -t 0.5 -s 17 -d 15 -p cbr -e 1000 -c 3 -i 18 -a 3 -x {17.0 14.0 0 ------- null}
- -t 0.5 -s 17 -d 15 -p cbr -e 1000 -c 3 -i 18 -a 3 -x {17.0 14.0 0 ------- null}
h -t 0.5 -s 17 -d 15 -p cbr -e 1000 -c 3 -i 18 -a 3 -x {17.0 14.0 -1 ------- null}
+ -t 0.5 -s 17 -d 15 -p cbr -e 500 -c 3 -i 19 -a 3 -x {17.0 14.0 1 ------- null}
+ -t 0.5 -s 18 -d 15 -p cbr -e 1000 -c 3 -i 20 -a 3 -x {18.0 14.0 0 ------- null}
- -t 0.5 -s 18 -d 15 -p cbr -e 1000 -c 3 -i 20 -a 3 -x {18.0 14.0 0 ------- null}
h -t 0.5 -s 18 -d 15 -p cbr -e 1000 -c 3 -i 20 -a 3 -x {18.0 14.0 -1 ------- null}
+ -t 0.5 -s 18 -d 15 -p cbr -e 500 -c 3 -i 21 -a 3 -x {18.0 14.0 1 ------- null}
+ -t 0.5 -s 20 -d 19 -p cbr -e 1000 -c 4 -i 22 -a 4 -x {20.0 14.0 0 ------- null}
- -t 0.5 -s 20 -d 19 -p cbr -e 1000 -c 4 -i 22 -a 4 -x {20.0 14.0 0 ------- null}
h -t 0.5 -s 20 -d 19 -p cbr -e 1000 -c 4 -i 22 -a 4 -x {20.0 14.0 -1 ------- null}
+ -t 0.5 -s 20 -d 19 -p cbr -e 500 -c 4 -i 23 -a 4 -x {20.0 14.0 1 ------- null}
+ -t 0.5 -s 21 -d 19 -p cbr -e 1000 -c 4 -i 24 -a 4 -x {21.0 14.0 0 ------- null}
- -t 0.5 -s 21 -d 19 -p cbr -e 1000 -c 4 -i 24 -a 4 -x {21.0 14.0 0 ------- null}
h -t 0.5 -s 21 -d 19 -p cbr -e 1000 -c 4 -i 24 -a 4 -x {21.0 14.0 -1 ------- null}
+ -t 0.5 -s 21 -d 19 -p cbr -e 500 -c 4 -i 25 -a 4 -x {21.0 14.0 1 ------- null}
- -t 0.500666666666667 -s 0 -d 4 -p cbr -e 500 -c 0 -i 1 -a 0 -x {0.0 14.0 1 ------- null}
h -t 0.500666666666667 -s 0 -d 4 -p cbr -e 500 -c 0 -i 1 -a 0 -x {0.0 14.0 -1 ------- null}
- -t 0.500666666666667 -s 1 -d 4 -p cbr -e 500 -c 0 -i 3 -a 0 -x {1.0 14.0 1 ------- null}
h -t 0.500666666666667 -s 1 -d 4 -p cbr -e 500 -c 0 -i 3 -a 0 -x {1.0 14.0 -1 ------- null}
- -t 0.500666666666667 -s 2 -d 4 -p cbr -e 500 -c 0 -i 5 -a 0 -x {2.0 14.0 1 ------- null}
h -t 0.500666666666667 -s 2 -d 4 -p cbr -e 500 -c 0 -i 5 -a 0 -x {2.0 14.0 -1 ------- null}
- -t 0.500666666666667 -s 3 -d 4 -p cbr -e 500 -c 0 -i 7 -a 0 -x {3.0 14.0 1 ------- null}
h -t 0.500666666666667 -s 3 -d 4 -p cbr -e 500 -c 0 -i 7 -a 0 -x {3.0 14.0 -1 ------- null}
- -t 0.500666666666667 -s 5 -d 9 -p cbr -e 500 -c 1 -i 9 -a 1 -x {5.0 14.0 1 ------- null}
h -t 0.500666666666667 -s 5 -d 9 -p cbr -e 500 -c 1 -i 9 -a 1 -x {5.0 14.0 -1 ------- null}
- -t 0.500666666666667 -s 6 -d 9 -p cbr -e 500 -c 1 -i 11 -a 1 -x {6.0 14.0 1 ------- null}
h -t 0.500666666666667 -s 6 -d 9 -p cbr -e 500 -c 1 -i 11 -a 1 -x {6.0 14.0 -1 ------- null}
- -t 0.500666666666667 -s 7 -d 9 -p cbr -e 500 -c 1 -i 13 -a 1 -x {7.0 14.0 1 ------- null}
h -t 0.500666666666667 -s 7 -d 9 -p cbr -e 500 -c 1 -i 13 -a 1 -x {7.0 14.0 -1 ------- null}
- -t 0.500666666666667 -s 8 -d 9 -p cbr -e 500 -c 1 -i 15 -a 1 -x {8.0 14.0 1 ------- null}
h -t 0.500666666666667 -s 8 -d 9 -p cbr -e 500 -c 1 -i 15 -a 1 -x {8.0 14.0 -1 ------- null}
- -t 0.500666666666667 -s 16 -d 15 -p cbr -e 500 -c 3 -i 17 -a 3 -x {16.0 14.0 1 ------- null}
h -t 0.500666666666667 -s 16 -d 15 -p cbr -e 500 -c 3 -i 17 -a 3 -x {16.0 14.0 -1 ------- null}
- -t 0.500666666666667 -s 17 -d 15 -p cbr -e 500 -c 3 -i 19 -a 3 -x {17.0 14.0 1 ------- null}
h -t 0.500666666666667 -s 17 -d 15 -p cbr -e 500 -c 3 -i 19 -a 3 -x {17.0 14.0 -1 ------- null}
- -t 0.500666666666667 -s 18 -d 15 -p cbr -e 500 -c 3 -i 21 -a 3 -x {18.0 14.0 1 ------- null}
h -t 0.500666666666667 -s 18 -d 15 -p cbr -e 500 -c 3 -i 21 -a 3 -x {18.0 14.0 -1 ------- null}
- -t 0.500666666666667 -s 20 -d 19 -p cbr -e 500 -c 4 -i 23 -a 4 -x {20.0 14.0 1 ------- null}
h -t 0.500666666666667 -s 20 -d 19 -p cbr -e 500 -c 4 -i 23 -a 4 -x {20.0 14.0 -1 ------- null}
- -t 0.500666666666667 -s 21 -d 19 -p cbr -e 500 -c 4 -i 25 -a 4 -x {21.0 14.0 1 ------- null}
h -t 0.500666666666667 -s 21 -d 19 -p cbr -e 500 -c 4 -i 25 -a 4 -x {21.0 14.0 -1 ------- null}
r -t 0.600666666666667 -s 0 -d 4 -p cbr -e 1000 -c 0 -i 0 -a 0 -x {0.0 14.0 0 ------- null}
+ -t 0.600666666666667 -s 4 -d 13 -p cbr -e 1000 -c 0 -i 0 -a 0 -x {0.0 14.0 0 ------- null}
- -t 0.600666666666667 -s 4 -d 13 -p cbr -e 1000 -c 0 -i 0 -a 0 -x {0.0 14.0 0 ------- null}
h -t 0.600666666666667 -s 4 -d 13 -p cbr -e 1000 -c 0 -i 0 -a 0 -x {0.0 14.0 -1 ------- null}
r -t 0.600666666666667 -s 1 -d 4 -p cbr -e 1000 -c 0 -i 2 -a 0 -x {1.0 14.0 0 ------- null}
+ -t 0.600666666666667 -s 4 -d 13 -p cbr -e 1000 -c 0 -i 2 -a 0 -x {1.0 14.0 0 ------- null}
r -t 0.600666666666667 -s 2 -d 4 -p cbr -e 1000 -c 0 -i 4 -a 0 -x {2.0 14.0 0 ------- null}
+ -t 0.600666666666667 -s 4 -d 13 -p cbr -e 1000 -c 0 -i 4 -a 0 -x {2.0 14.0 0 ------- null}
r -t 0.600666666666667 -s 3 -d 4 -p cbr -e 1000 -c 0 -i 6 -a 0 -x {3.0 14.0 0 ------- null}
+ -t 0.600666666666667 -s 4 -d 13 -p cbr -e 1000 -c 0 -i 6 -a 0 -x {3.0 14.0 0 ------- null}
r -t 0.600666666666667 -s 5 -d 9 -p cbr -e 1000 -c 1 -i 8 -a 1 -x {5.0 14.0 0 ------- null}
+ -t 0.600666666666667 -s 9 -d 13 -p cbr -e 1000 -c 1 -i 8 -a 1 -x {5.0 14.0 0 ------- null}
- -t 0.600666666666667 -s 9 -d 13 -p cbr -e 1000 -c 1 -i 8 -a 1 -x {5.0 14.0 0 ------- null}
h -t 0.600666666666667 -s 9 -d 13 -p cbr -e 1000 -c 1 -i 8 -a 1 -x {5.0 14.0 -1 ------- null}
r -t 0.600666666666667 -s 6 -d 9 -p cbr -e 1000 -c 1 -i 10 -a 1 -x {6.0 14.0 0 ------- null}
+ -t 0.600666666666667 -s 9 -d 13 -p cbr -e 1000 -c 1 -i 10 -a 1 -x {6.0 14.0 0 ------- null}
r -t 0.600666666666667 -s 7 -d 9 -p cbr -e 1000 -c 1 -i 12 -a 1 -x {7.0 14.0 0 ------- null}
+ -t 0.600666666666667 -s 9 -d 13 -p cbr -e 1000 -c 1 -i 12 -a 1 -x {7.0 14.0 0 ------- null}
r -t 0.600666666666667 -s 8 -d 9 -p cbr -e 1000 -c 1 -i 14 -a 1 -x {8.0 14.0 0 ------- null}
+ -t 0.600666666666667 -s 9 -d 13 -p cbr -e 1000 -c 1 -i 14 -a 1 -x {8.0 14.0 0 ------- null}
r -t 0.600666666666667 -s 16 -d 15 -p cbr -e 1000 -c 3 -i 16 -a 3 -x {16.0 14.0 0 ------- null}
+ -t 0.600666666666667 -s 15 -d 13 -p cbr -e 1000 -c 3 -i 16 -a 3 -x {16.0 14.0 0 ------- null}
- -t 0.600666666666667 -s 15 -d 13 -p cbr -e 1000 -c 3 -i 16 -a 3 -x {16.0 14.0 0 ------- null}
h -t 0.600666666666667 -s 15 -d 13 -p cbr -e 1000 -c 3 -i 16 -a 3 -x {16.0 14.0 -1 ------- null}
r -t 0.600666666666667 -s 17 -d 15 -p cbr -e 1000 -c 3 -i 18 -a 3 -x {17.0 14.0 0 ------- null}
+ -t 0.600666666666667 -s 15 -d 13 -p cbr -e 1000 -c 3 -i 18 -a 3 -x {17.0 14.0 0 ------- null}
r -t 0.600666666666667 -s 18 -d 15 -p cbr -e 1000 -c 3 -i 20 -a 3 -x {18.0 14.0 0 ------- null}
+ -t 0.600666666666667 -s 15 -d 13 -p cbr -e 1000 -c 3 -i 20 -a 3 -x {18.0 14.0 0 ------- null}
r -t 0.600666666666667 -s 20 -d 19 -p cbr -e 1000 -c 4 -i 22 -a 4 -x {20.0 14.0 0 ------- null}
+ -t 0.600666666666667 -s 19 -d 13 -p cbr -e 1000 -c 4 -i 22 -a 4 -x {20.0 14.0 0 ------- null}
- -t 0.600666666666667 -s 19 -d 13 -p cbr -e 1000 -c 4 -i 22 -a 4 -x {20.0 14.0 0 ------- null}
h -t 0.600666666666667 -s 19 -d 13 -p cbr -e 1000 -c 4 -i 22 -a 4 -x {20.0 14.0 -1 ------- null}
r -t 0.600666666666667 -s 21 -d 19 -p cbr -e 1000 -c 4 -i 24 -a 4 -x {21.0 14.0 0 ------- null}
+ -t 0.600666666666667 -s 19 -d 13 -p cbr -e 1000 -c 4 -i 24 -a 4 -x {21.0 14.0 0 ------- null}
r -t 0.601 -s 0 -d 4 -p cbr -e 500 -c 0 -i 1 -a 0 -x {0.0 14.0 1 ------- null}
+ -t 0.601 -s 4 -d 13 -p cbr -e 500 -c 0 -i 1 -a 0 -x {0.0 14.0 1 ------- null}
r -t 0.601 -s 1 -d 4 -p cbr -e 500 -c 0 -i 3 -a 0 -x {1.0 14.0 1 ------- null}
+ -t 0.601 -s 4 -d 13 -p cbr -e 500 -c 0 -i 3 -a 0 -x {1.0 14.0 1 ------- null}
r -t 0.601 -s 2 -d 4 -p cbr -e 500 -c 0 -i 5 -a 0 -x {2.0 14.0 1 ------- null}
+ -t 0.601 -s 4 -d 13 -p cbr -e 500 -c 0 -i 5 -a 0 -x {2.0 14.0 1 ------- null}
r -t 0.601 -s 3 -d 4 -p cbr -e 500 -c 0 -i 7 -a 0 -x {3.0 14.0 1 ------- null}
+ -t 0.601 -s 4 -d 13 -p cbr -e 500 -c 0 -i 7 -a 0 -x {3.0 14.0 1 ------- null}
r -t 0.601 -s 5 -d 9 -p cbr -e 500 -c 1 -i 9 -a 1 -x {5.0 14.0 1 ------- null}
+ -t 0.601 -s 9 -d 13 -p cbr -e 500 -c 1 -i 9 -a 1 -x {5.0 14.0 1 ------- null}
r -t 0.601 -s 6 -d 9 -p cbr -e 500 -c 1 -i 11 -a 1 -x {6.0 14.0 1 ------- null}
+ -t 0.601 -s 9 -d 13 -p cbr -e 500 -c 1 -i 11 -a 1 -x {6.0 14.0 1 ------- null}
r -t 0.601 -s 7 -d 9 -p cbr -e 500 -c 1 -i 13 -a 1 -x {7.0 14.0 1 ------- null}
+ -t 0.601 -s 9 -d 13 -p cbr -e 500 -c 1 -i 13 -a 1 -x {7.0 14.0 1 ------- null}
r -t 0.601 -s 8 -d 9 -p cbr -e 500 -c 1 -i 15 -a 1 -x {8.0 14.0 1 ------- null}
+ -t 0.601 -s 9 -d 13 -p cbr -e 500 -c 1 -i 15 -a 1 -x {8.0 14.0 1 ------- null}
r -t 0.601 -s 16 -d 15 -p cbr -e 500 -c 3 -i 17 -a 3 -x {16.0 14.0 1 ------- null}
+ -t 0.601 -s 15 -d 13 -p cbr -e 500 -c 3 -i 17 -a 3 -x {16.0 14.0 1 ------- null}
r -t 0.601 -s 17 -d 15 -p cbr -e 500 -c 3 -i 19 -a 3 -x {17.0 14.0 1 ------- null}
+ -t 0.601 -s 15 -d 13 -p cbr -e 500 -c 3 -i 19 -a 3 -x {17.0 14.0 1 ------- null}
r -t 0.601 -s 18 -d 15 -p cbr -e 500 -c 3 -i 21 -a 3 -x {18.0 14.0 1 ------- null}
+ -t 0.601 -s 15 -d 13 -p cbr -e 500 -c 3 -i 21 -a 3 -x {18.0 14.0 1 ------- null}
r -t 0.601 -s 20 -d 19 -p cbr -e 500 -c 4 -i 23 -a 4 -x {20.0 14.0 1 ------- null}
+ -t 0.601 -s 19 -d 13 -p cbr -e 500 -c 4 -i 23 -a 4 -x {20.0 14.0 1 ------- null}
r -t 0.601 -s 21 -d 19 -p cbr -e 500 -c 4 -i 25 -a 4 -x {21.0 14.0 1 ------- null}
+ -t 0.601 -s 19 -d 13 -p cbr -e 500 -c 4 -i 25 -a 4 -x {21.0 14.0 1 ------- null}
- -t 0.601333333333333 -s 4 -d 13 -p cbr -e 1000 -c 0 -i 2 -a 0 -x {1.0 14.0 0 ------- null}
h -t 0.601333333333333 -s 4 -d 13 -p cbr -e 1000 -c 0 -i 2 -a 0 -x {1.0 14.0 -1 ------- null}
- -t 0.601333333333333 -s 9 -d 13 -p cbr -e 1000 -c 1 -i 10 -a 1 -x {6.0 14.0 0 ------- null}
h -t 0.601333333333333 -s 9 -d 13 -p cbr -e 1000 -c 1 -i 10 -a 1 -x {6.0 14.0 -1 ------- null}
- -t 0.601333333333333 -s 15 -d 13 -p cbr -e 1000 -c 3 -i 18 -a 3 -x {17.0 14.0 0 ------- null}
h -t 0.601333333333333 -s 15 -d 13 -p cbr -e 1000 -c 3 -i 18 -a 3 -x {17.0 14.0 -1 ------- null}
- -t 0.601333333333333 -s 19 -d 13 -p cbr -e 1000 -c 4 -i 24 -a 4 -x {21.0 14.0 0 ------- null}
h -t 0.601333333333333 -s 19 -d 13 -p cbr -e 1000 -c 4 -i 24 -a 4 -x {21.0 14.0 -1 ------- null}
- -t 0.602 -s 4 -d 13 -p cbr -e 1000 -c 0 -i 4 -a 0 -x {2.0 14.0 0 ------- null}
h -t 0.602 -s 4 -d 13 -p cbr -e 1000 -c 0 -i 4 -a 0 -x {2.0 14.0 -1 ------- null}
- -t 0.602 -s 9 -d 13 -p cbr -e 1000 -c 1 -i 12 -a 1 -x {7.0 14.0 0 ------- null}
h -t 0.602 -s 9 -d 13 -p cbr -e 1000 -c 1 -i 12 -a 1 -x {7.0 14.0 -1 ------- null}
- -t 0.602 -s 15 -d 13 -p cbr -e 1000 -c 3 -i 20 -a 3 -x {18.0 14.0 0 ------- null}
h -t 0.602 -s 15 -d 13 -p cbr -e 1000 -c 3 -i 20 -a 3 -x {18.0 14.0 -1 ------- null}
- -t 0.602 -s 19 -d 13 -p cbr -e 500 -c 4 -i 23 -a 4 -x {20.0 14.0 1 ------- null}
h -t 0.602 -s 19 -d 13 -p cbr -e 500 -c 4 -i 23 -a 4 -x {20.0 14.0 -1 ------- null}
- -t 0.602333333333333 -s 19 -d 13 -p cbr -e 500 -c 4 -i 25 -a 4 -x {21.0 14.0 1 ------- null}
h -t 0.602333333333333 -s 19 -d 13 -p cbr -e 500 -c 4 -i 25 -a 4 -x {21.0 14.0 -1 ------- null}
- -t 0.602666666666667 -s 4 -d 13 -p cbr -e 1000 -c 0 -i 6 -a 0 -x {3.0 14.0 0 ------- null}
h -t 0.602666666666667 -s 4 -d 13 -p cbr -e 1000 -c 0 -i 6 -a 0 -x {3.0 14.0 -1 ------- null}
- -t 0.602666666666667 -s 9 -d 13 -p cbr -e 1000 -c 1 -i 14 -a 1 -x {8.0 14.0 0 ------- null}
h -t 0.602666666666667 -s 9 -d 13 -p cbr -e 1000 -c 1 -i 14 -a 1 -x {8.0 14.0 -1 ------- null}
- -t 0.602666666666667 -s 15 -d 13 -p cbr -e 500 -c 3 -i 17 -a 3 -x {16.0 14.0 1 ------- null}
h -t 0.602666666666667 -s 15 -d 13 -p cbr -e 500 -c 3 -i 17 -a 3 -x {16.0 14.0 -1 ------- null}
- -t 0.603 -s 15 -d 13 -p cbr -e 500 -c 3 -i 19 -a 3 -x {17.0 14.0 1 ------- null}
h -t 0.603 -s 15 -d 13 -p cbr -e 500 -c 3 -i 19 -a 3 -x {17.0 14.0 -1 ------- null}
- -t 0.603333333333333 -s 15 -d 13 -p cbr -e 500 -c 3 -i 21 -a 3 -x {18.0 14.0 1 ------- null}
h -t 0.603333333333333 -s 15 -d 13 -p cbr -e 500 -c 3 -i 21 -a 3 -x {18.0 14.0 -1 ------- null}
- -t 0.603333333333333 -s 4 -d 13 -p cbr -e 500 -c 0 -i 1 -a 0 -x {0.0 14.0 1 ------- null}
h -t 0.603333333333333 -s 4 -d 13 -p cbr -e 500 -c 0 -i 1 -a 0 -x {0.0 14.0 -1 ------- null}
- -t 0.603333333333333 -s 9 -d 13 -p cbr -e 500 -c 1 -i 9 -a 1 -x {5.0 14.0 1 ------- null}
h -t 0.603333333333333 -s 9 -d 13 -p cbr -e 500 -c 1 -i 9 -a 1 -x {5.0 14.0 -1 ------- null}
- -t 0.603666666666667 -s 4 -d 13 -p cbr -e 500 -c 0 -i 3 -a 0 -x {1.0 14.0 1 ------- null}
h -t 0.603666666666667 -s 4 -d 13 -p cbr -e 500 -c 0 -i 3 -a 0 -x {1.0 14.0 -1 ------- null}
- -t 0.603666666666667 -s 9 -d 13 -p cbr -e 500 -c 1 -i 11 -a 1 -x {6.0 14.0 1 ------- null}
h -t 0.603666666666667 -s 9 -d 13 -p cbr -e 500 -c 1 -i 11 -a 1 -x {6.0 14.0 -1 ------- null}
- -t 0.604 -s 4 -d 13 -p cbr -e 500 -c 0 -i 5 -a 0 -x {2.0 14.0 1 ------- null}
h -t 0.604 -s 4 -d 13 -p cbr -e 500 -c 0 -i 5 -a 0 -x {2.0 14.0 -1 ------- null}
- -t 0.604 -s 9 -d 13 -p cbr -e 500 -c 1 -i 13 -a 1 -x {7.0 14.0 1 ------- null}
h -t 0.604 -s 9 -d 13 -p cbr -e 500 -c 1 -i 13 -a 1 -x {7.0 14.0 -1 ------- null}
- -t 0.604333333333333 -s 4 -d 13 -p cbr -e 500 -c 0 -i 7 -a 0 -x {3.0 14.0 1 ------- null}
h -t 0.604333333333333 -s 4 -d 13 -p cbr -e 500 -c 0 -i 7 -a 0 -x {3.0 14.0 -1 ------- null}
- -t 0.604333333333333 -s 9 -d 13 -p cbr -e 500 -c 1 -i 15 -a 1 -x {8.0 14.0 1 ------- null}
h -t 0.604333333333333 -s 9 -d 13 -p cbr -e 500 -c 1 -i 15 -a 1 -x {8.0 14.0 -1 ------- null}
+ -t 0.7 -s 0 -d 4 -p cbr -e 1000 -c 0 -i 26 -a 0 -x {0.0 14.0 2 ------- null}
- -t 0.7 -s 0 -d 4 -p cbr -e 1000 -c 0 -i 26 -a 0 -x {0.0 14.0 2 ------- null}
h -t 0.7 -s 0 -d 4 -p cbr -e 1000 -c 0 -i 26 -a 0 -x {0.0 14.0 -1 ------- null}
+ -t 0.7 -s 0 -d 4 -p cbr -e 500 -c 0 -i 27 -a 0 -x {0.0 14.0 3 ------- null}
+ -t 0.7 -s 1 -d 4 -p cbr -e 1000 -c 0 -i 28 -a 0 -x {1.0 14.0 2 ------- null}
- -t 0.7 -s 1 -d 4 -p cbr -e 1000 -c 0 -i 28 -a 0 -x {1.0 14.0 2 ------- null}
h -t 0.7 -s 1 -d 4 -p cbr -e 1000 -c 0 -i 28 -a 0 -x {1.0 14.0 -1 ------- null}
+ -t 0.7 -s 1 -d 4 -p cbr -e 500 -c 0 -i 29 -a 0 -x {1.0 14.0 3 ------- null}
+ -t 0.7 -s 2 -d 4 -p cbr -e 1000 -c 0 -i 30 -a 0 -x {2.0 14.0 2 ------- null}
- -t 0.7 -s 2 -d 4 -p cbr -e 1000 -c 0 -i 30 -a 0 -x {2.0 14.0 2 ------- null}
h -t 0.7 -s 2 -d 4 -p cbr -e 1000 -c 0 -i 30 -a 0 -x {2.0 14.0 -1 ------- null}
+ -t 0.7 -s 2 -d 4 -p cbr -e 500 -c 0 -i 31 -a 0 -x {2.0 14.0 3 ------- null}
+ -t 0.7 -s 3 -d 4 -p cbr -e 1000 -c 0 -i 32 -a 0 -x {3.0 14.0 2 ------- null}
- -t 0.7 -s 3 -d 4 -p cbr -e 1000 -c 0 -i 32 -a 0 -x {3.0 14.0 2 ------- null}
h -t 0.7 -s 3 -d 4 -p cbr -e 1000 -c 0 -i 32 -a 0 -x {3.0 14.0 -1 ------- null}
+ -t 0.7 -s 3 -d 4 -p cbr -e 500 -c 0 -i 33 -a 0 -x {3.0 14.0 3 ------- null}
+ -t 0.7 -s 5 -d 9 -p cbr -e 1000 -c 1 -i 34 -a 1 -x {5.0 14.0 2 ------- null}
- -t 0.7 -s 5 -d 9 -p cbr -e 1000 -c 1 -i 34 -a 1 -x {5.0 14.0 2 ------- null}
h -t 0.7 -s 5 -d 9 -p cbr -e 1000 -c 1 -i 34 -a 1 -x {5.0 14.0 -1 ------- null}
+ -t 0.7 -s 5 -d 9 -p cbr -e 500 -c 1 -i 35 -a 1 -x {5.0 14.0 3 ------- null}
+ -t 0.7 -s 6 -d 9 -p cbr -e 1000 -c 1 -i 36 -a 1 -x {6.0 14.0 2 ------- null}
- -t 0.7 -s 6 -d 9 -p cbr -e 1000 -c 1 -i 36 -a 1 -x {6.0 14.0 2 ------- null}
h -t 0.7 -s 6 -d 9 -p cbr -e 1000 -c 1 -i 36 -a 1 -x {6.0 14.0 -1 ------- null}
+ -t 0.7 -s 6 -d 9 -p cbr -e 500 -c 1 -i 37 -a 1 -x {6.0 14.0 3 ------- null}
+ -t 0.7 -s 7 -d 9 -p cbr -e 1000 -c 1 -i 38 -a 1 -x {7.0 14.0 2 ------- null}
- -t 0.7 -s 7 -d 9 -p cbr -e 1000 -c 1 -i 38 -a 1 -x {7.0 14.0 2 ------- null}
h -t 0.7 -s 7 -d 9 -p cbr -e 1000 -c 1 -i 38 -a 1 -x {7.0 14.0 -1 ------- null}
+ -t 0.7 -s 7 -d 9 -p cbr -e 500 -c 1 -i 39 -a 1 -x {7.0 14.0 3 ------- null}
+ -t 0.7 -s 8 -d 9 -p cbr -e 1000 -c 1 -i 40 -a 1 -x {8.0 14.0 2 ------- null}
- -t 0.7 -s 8 -d 9 -p cbr -e 1000 -c 1 -i 40 -a 1 -x {8.0 14.0 2 ------- null}
h -t 0.7 -s 8 -d 9 -p cbr -e 1000 -c 1 -i 40 -a 1 -x {8.0 14.0 -1 ------- null}
+ -t 0.7 -s 8 -d 9 -p cbr -e 500 -c 1 -i 41 -a 1 -x {8.0 14.0 3 ------- null}
+ -t 0.7 -s 16 -d 15 -p cbr -e 1000 -c 3 -i 42 -a 3 -x {16.0 14.0 2 ------- null}
- -t 0.7 -s 16 -d 15 -p cbr -e 1000 -c 3 -i 42 -a 3 -x {16.0 14.0 2 ------- null}
h -t 0.7 -s 16 -d 15 -p cbr -e 1000 -c 3 -i 42 -a 3 -x {16.0 14.0 -1 ------- null}
+ -t 0.7 -s 16 -d 15 -p cbr -e 500 -c 3 -i 43 -a 3 -x {16.0 14.0 3 ------- null}
+ -t 0.7 -s 17 -d 15 -p cbr -e 1000 -c 3 -i 44 -a 3 -x {17.0 14.0 2 ------- null}
- -t 0.7 -s 17 -d 15 -p cbr -e 1000 -c 3 -i 44 -a 3 -x {17.0 14.0 2 ------- null}
h -t 0.7 -s 17 -d 15 -p cbr -e 1000 -c 3 -i 44 -a 3 -x {17.0 14.0 -1 ------- null}
+ -t 0.7 -s 17 -d 15 -p cbr -e 500 -c 3 -i 45 -a 3 -x {17.0 14.0 3 ------- null}
+ -t 0.7 -s 18 -d 15 -p cbr -e 1000 -c 3 -i 46 -a 3 -x {18.0 14.0 2 ------- null}
- -t 0.7 -s 18 -d 15 -p cbr -e 1000 -c 3 -i 46 -a 3 -x {18.0 14.0 2 ------- null}
h -t 0.7 -s 18 -d 15 -p cbr -e 1000 -c 3 -i 46 -a 3 -x {18.0 14.0 -1 ------- null}
+ -t 0.7 -s 18 -d 15 -p cbr -e 500 -c 3 -i 47 -a 3 -x {18.0 14.0 3 ------- null}
+ -t 0.7 -s 20 -d 19 -p cbr -e 1000 -c 4 -i 48 -a 4 -x {20.0 14.0 2 ------- null}
- -t 0.7 -s 20 -d 19 -p cbr -e 1000 -c 4 -i 48 -a 4 -x {20.0 14.0 2 ------- null}
h -t 0.7 -s 20 -d 19 -p cbr -e 1000 -c 4 -i 48 -a 4 -x {20.0 14.0 -1 ------- null}
+ -t 0.7 -s 20 -d 19 -p cbr -e 500 -c 4 -i 49 -a 4 -x {20.0 14.0 3 ------- null}
+ -t 0.7 -s 21 -d 19 -p cbr -e 1000 -c 4 -i 50 -a 4 -x {21.0 14.0 2 ------- null}
- -t 0.7 -s 21 -d 19 -p cbr -e 1000 -c 4 -i 50 -a 4 -x {21.0 14.0 2 ------- null}
h -t 0.7 -s 21 -d 19 -p cbr -e 1000 -c 4 -i 50 -a 4 -x {21.0 14.0 -1 ------- null}
+ -t 0.7 -s 21 -d 19 -p cbr -e 500 -c 4 -i 51 -a 4 -x {21.0 14.0 3 ------- null}
- -t 0.700666666666667 -s 0 -d 4 -p cbr -e 500 -c 0 -i 27 -a 0 -x {0.0 14.0 3 ------- null}
h -t 0.700666666666667 -s 0 -d 4 -p cbr -e 500 -c 0 -i 27 -a 0 -x {0.0 14.0 -1 ------- null}
- -t 0.700666666666667 -s 1 -d 4 -p cbr -e 500 -c 0 -i 29 -a 0 -x {1.0 14.0 3 ------- null}
h -t 0.700666666666667 -s 1 -d 4 -p cbr -e 500 -c 0 -i 29 -a 0 -x {1.0 14.0 -1 ------- null}
- -t 0.700666666666667 -s 2 -d 4 -p cbr -e 500 -c 0 -i 31 -a 0 -x {2.0 14.0 3 ------- null}
h -t 0.700666666666667 -s 2 -d 4 -p cbr -e 500 -c 0 -i 31 -a 0 -x {2.0 14.0 -1 ------- null}
- -t 0.700666666666667 -s 3 -d 4 -p cbr -e 500 -c 0 -i 33 -a 0 -x {3.0 14.0 3 ------- null}
h -t 0.700666666666667 -s 3 -d 4 -p cbr -e 500 -c 0 -i 33 -a 0 -x {3.0 14.0 -1 ------- null}
- -t 0.700666666666667 -s 5 -d 9 -p cbr -e 500 -c 1 -i 35 -a 1 -x {5.0 14.0 3 ------- null}
h -t 0.700666666666667 -s 5 -d 9 -p cbr -e 500 -c 1 -i 35 -a 1 -x {5.0 14.0 -1 ------- null}
- -t 0.700666666666667 -s 6 -d 9 -p cbr -e 500 -c 1 -i 37 -a 1 -x {6.0 14.0 3 ------- null}
h -t 0.700666666666667 -s 6 -d 9 -p cbr -e 500 -c 1 -i 37 -a 1 -x {6.0 14.0 -1 ------- null}
- -t 0.700666666666667 -s 7 -d 9 -p cbr -e 500 -c 1 -i 39 -a 1 -x {7.0 14.0 3 ------- null}
h -t 0.700666666666667 -s 7 -d 9 -p cbr -e 500 -c 1 -i 39 -a 1 -x {7.0 14.0 -1 ------- null}
- -t 0.700666666666667 -s 8 -d 9 -p cbr -e 500 -c 1 -i 41 -a 1 -x {8.0 14.0 3 ------- null}
h -t 0.700666666666667 -s 8 -d 9 -p cbr -e 500 -c 1 -i 41 -a 1 -x {8.0 14.0 -1 ------- null}
- -t 0.700666666666667 -s 16 -d 15 -p cbr -e 500 -c 3 -i 43 -a 3 -x {16.0 14.0 3 ------- null}
h -t 0.700666666666667 -s 16 -d 15 -p cbr -e 500 -c 3 -i 43 -a 3 -x {16.0 14.0 -1 ------- null}
- -t 0.700666666666667 -s 17 -d 15 -p cbr -e 500 -c 3 -i 45 -a 3 -x {17.0 14.0 3 ------- null}
h -t 0.700666666666667 -s 17 -d 15 -p cbr -e 500 -c 3 -i 45 -a 3 -x {17.0 14.0 -1 ------- null}
- -t 0.700666666666667 -s 18 -d 15 -p cbr -e 500 -c 3 -i 47 -a 3 -x {18.0 14.0 3 ------- null}
h -t 0.700666666666667 -s 18 -d 15 -p cbr -e 500 -c 3 -i 47 -a 3 -x {18.0 14.0 -1 ------- null}
- -t 0.700666666666667 -s 20 -d 19 -p cbr -e 500 -c 4 -i 49 -a 4 -x {20.0 14.0 3 ------- null}
h -t 0.700666666666667 -s 20 -d 19 -p cbr -e 500 -c 4 -i 49 -a 4 -x {20.0 14.0 -1 ------- null}
- -t 0.700666666666667 -s 21 -d 19 -p cbr -e 500 -c 4 -i 51 -a 4 -x {21.0 14.0 3 ------- null}
h -t 0.700666666666667 -s 21 -d 19 -p cbr -e 500 -c 4 -i 51 -a 4 -x {21.0 14.0 -1 ------- null}
r -t 0.701333333333333 -s 4 -d 13 -p cbr -e 1000 -c 0 -i 0 -a 0 -x {0.0 14.0 0 ------- null}
+ -t 0.701333333333333 -s 13 -d 14 -p cbr -e 1000 -c 0 -i 0 -a 0 -x {0.0 14.0 0 ------- null}
- -t 0.701333333333333 -s 13 -d 14 -p cbr -e 1000 -c 0 -i 0 -a 0 -x {0.0 14.0 0 ------- null}
h -t 0.701333333333333 -s 13 -d 14 -p cbr -e 1000 -c 0 -i 0 -a 0 -x {0.0 14.0 -1 ------- null}
r -t 0.701333333333333 -s 9 -d 13 -p cbr -e 1000 -c 1 -i 8 -a 1 -x {5.0 14.0 0 ------- null}
+ -t 0.701333333333333 -s 13 -d 14 -p cbr -e 1000 -c 1 -i 8 -a 1 -x {5.0 14.0 0 ------- null}
r -t 0.701333333333333 -s 15 -d 13 -p cbr -e 1000 -c 3 -i 16 -a 3 -x {16.0 14.0 0 ------- null}
+ -t 0.701333333333333 -s 13 -d 14 -p cbr -e 1000 -c 3 -i 16 -a 3 -x {16.0 14.0 0 ------- null}
r -t 0.701333333333333 -s 19 -d 13 -p cbr -e 1000 -c 4 -i 22 -a 4 -x {20.0 14.0 0 ------- null}
+ -t 0.701333333333333 -s 13 -d 14 -p cbr -e 1000 -c 4 -i 22 -a 4 -x {20.0 14.0 0 ------- null}
r -t 0.702 -s 4 -d 13 -p cbr -e 1000 -c 0 -i 2 -a 0 -x {1.0 14.0 0 ------- null}
+ -t 0.702 -s 13 -d 14 -p cbr -e 1000 -c 0 -i 2 -a 0 -x {1.0 14.0 0 ------- null}
r -t 0.702 -s 9 -d 13 -p cbr -e 1000 -c 1 -i 10 -a 1 -x {6.0 14.0 0 ------- null}
+ -t 0.702 -s 13 -d 14 -p cbr -e 1000 -c 1 -i 10 -a 1 -x {6.0 14.0 0 ------- null}
r -t 0.702 -s 15 -d 13 -p cbr -e 1000 -c 3 -i 18 -a 3 -x {17.0 14.0 0 ------- null}
+ -t 0.702 -s 13 -d 14 -p cbr -e 1000 -c 3 -i 18 -a 3 -x {17.0 14.0 0 ------- null}
r -t 0.702 -s 19 -d 13 -p cbr -e 1000 -c 4 -i 24 -a 4 -x {21.0 14.0 0 ------- null}
+ -t 0.702 -s 13 -d 14 -p cbr -e 1000 -c 4 -i 24 -a 4 -x {21.0 14.0 0 ------- null}
r -t 0.702333333333333 -s 19 -d 13 -p cbr -e 500 -c 4 -i 23 -a 4 -x {20.0 14.0 1 ------- null}
+ -t 0.702333333333333 -s 13 -d 14 -p cbr -e 500 -c 4 -i 23 -a 4 -x {20.0 14.0 1 ------- null}
- -t 0.702666666666667 -s 13 -d 14 -p cbr -e 1000 -c 1 -i 8 -a 1 -x {5.0 14.0 0 ------- null}
h -t 0.702666666666667 -s 13 -d 14 -p cbr -e 1000 -c 1 -i 8 -a 1 -x {5.0 14.0 -1 ------- null}
r -t 0.702666666666667 -s 4 -d 13 -p cbr -e 1000 -c 0 -i 4 -a 0 -x {2.0 14.0 0 ------- null}
+ -t 0.702666666666667 -s 13 -d 14 -p cbr -e 1000 -c 0 -i 4 -a 0 -x {2.0 14.0 0 ------- null}
r -t 0.702666666666667 -s 9 -d 13 -p cbr -e 1000 -c 1 -i 12 -a 1 -x {7.0 14.0 0 ------- null}
+ -t 0.702666666666667 -s 13 -d 14 -p cbr -e 1000 -c 1 -i 12 -a 1 -x {7.0 14.0 0 ------- null}
r -t 0.702666666666667 -s 15 -d 13 -p cbr -e 1000 -c 3 -i 20 -a 3 -x {18.0 14.0 0 ------- null}
+ -t 0.702666666666667 -s 13 -d 14 -p cbr -e 1000 -c 3 -i 20 -a 3 -x {18.0 14.0 0 ------- null}
r -t 0.702666666666667 -s 19 -d 13 -p cbr -e 500 -c 4 -i 25 -a 4 -x {21.0 14.0 1 ------- null}
+ -t 0.702666666666667 -s 13 -d 14 -p cbr -e 500 -c 4 -i 25 -a 4 -x {21.0 14.0 1 ------- null}
r -t 0.703 -s 15 -d 13 -p cbr -e 500 -c 3 -i 17 -a 3 -x {16.0 14.0 1 ------- null}
+ -t 0.703 -s 13 -d 14 -p cbr -e 500 -c 3 -i 17 -a 3 -x {16.0 14.0 1 ------- null}
r -t 0.703333333333333 -s 4 -d 13 -p cbr -e 1000 -c 0 -i 6 -a 0 -x {3.0 14.0 0 ------- null}
+ -t 0.703333333333333 -s 13 -d 14 -p cbr -e 1000 -c 0 -i 6 -a 0 -x {3.0 14.0 0 ------- null}
r -t 0.703333333333333 -s 9 -d 13 -p cbr -e 1000 -c 1 -i 14 -a 1 -x {8.0 14.0 0 ------- null}
+ -t 0.703333333333333 -s 13 -d 14 -p cbr -e 1000 -c 1 -i 14 -a 1 -x {8.0 14.0 0 ------- null}
r -t 0.703333333333333 -s 15 -d 13 -p cbr -e 500 -c 3 -i 19 -a 3 -x {17.0 14.0 1 ------- null}
+ -t 0.703333333333333 -s 13 -d 14 -p cbr -e 500 -c 3 -i 19 -a 3 -x {17.0 14.0 1 ------- null}
r -t 0.703666666666667 -s 15 -d 13 -p cbr -e 500 -c 3 -i 21 -a 3 -x {18.0 14.0 1 ------- null}
+ -t 0.703666666666667 -s 13 -d 14 -p cbr -e 500 -c 3 -i 21 -a 3 -x {18.0 14.0 1 ------- null}
r -t 0.703666666666667 -s 4 -d 13 -p cbr -e 500 -c 0 -i 1 -a 0 -x {0.0 14.0 1 ------- null}
+ -t 0.703666666666667 -s 13 -d 14 -p cbr -e 500 -c 0 -i 1 -a 0 -x {0.0 14.0 1 ------- null}
r -t 0.703666666666667 -s 9 -d 13 -p cbr -e 500 -c 1 -i 9 -a 1 -x {5.0 14.0 1 ------- null}
+ -t 0.703666666666667 -s 13 -d 14 -p cbr -e 500 -c 1 -i 9 -a 1 -x {5.0 14.0 1 ------- null}
- -t 0.704 -s 13 -d 14 -p cbr -e 1000 -c 3 -i 16 -a 3 -x {16.0 14.0 0 ------- null}
h -t 0.704 -s 13 -d 14 -p cbr -e 1000 -c 3 -i 16 -a 3 -x {16.0 14.0 -1 ------- null}
r -t 0.704 -s 4 -d 13 -p cbr -e 500 -c 0 -i 3 -a 0 -x {1.0 14.0 1 ------- null}
+ -t 0.704 -s 13 -d 14 -p cbr -e 500 -c 0 -i 3 -a 0 -x {1.0 14.0 1 ------- null}
r -t 0.704 -s 9 -d 13 -p cbr -e 500 -c 1 -i 11 -a 1 -x {6.0 14.0 1 ------- null}
+ -t 0.704 -s 13 -d 14 -p cbr -e 500 -c 1 -i 11 -a 1 -x {6.0 14.0 1 ------- null}
r -t 0.704333333333333 -s 4 -d 13 -p cbr -e 500 -c 0 -i 5 -a 0 -x {2.0 14.0 1 ------- null}
+ -t 0.704333333333333 -s 13 -d 14 -p cbr -e 500 -c 0 -i 5 -a 0 -x {2.0 14.0 1 ------- null}